 Entering Gaussian System, Link 0=g09
 Initial command:
 /ihome/crc/build/g09/g09-D.01/TAR/g09/l1.exe "/scratch/slurm-1116809/Gau-91653.inp" -scrdir="/scratch/slurm-1116809/"
 Entering Link 1 = /ihome/crc/build/g09/g09-D.01/TAR/g09/l1.exe PID=     91654.
  
 Copyright (c) 1988,1990,1992,1993,1995,1998,2003,2009,2013,
            Gaussian, Inc.  All Rights Reserved.
  
 This is part of the Gaussian(R) 09 program.  It is based on
 the Gaussian(R) 03 system (copyright 2003, Gaussian, Inc.),
 the Gaussian(R) 98 system (copyright 1998, Gaussian, Inc.),
 the Gaussian(R) 94 system (copyright 1995, Gaussian, Inc.),
 the Gaussian 92(TM) system (copyright 1992, Gaussian, Inc.),
 the Gaussian 90(TM) system (copyright 1990, Gaussian, Inc.),
 the Gaussian 88(TM) system (copyright 1988, Gaussian, Inc.),
 the Gaussian 86(TM) system (copyright 1986, Carnegie Mellon
 University), and the Gaussian 82(TM) system (copyright 1983,
 Carnegie Mellon University). Gaussian is a federally registered
 trademark of Gaussian, Inc.
  
 This software contains proprietary and confidential information,
 including trade secrets, belonging to Gaussian, Inc.
  
 This software is provided under written license and may be
 used, copied, transmitted, or stored only in accord with that
 written license.
  
 The following legend is applicable only to US Government
 contracts under FAR:
  
                    RESTRICTED RIGHTS LEGEND
  
 Use, reproduction and disclosure by the US Government is
 subject to restrictions as set forth in subparagraphs (a)
 and (c) of the Commercial Computer Software - Restricted
 Rights clause in FAR 52.227-19.
  
 Gaussian, Inc.
 340 Quinnipiac St., Bldg. 40, Wallingford CT 06492
  
  
 ---------------------------------------------------------------
 Warning -- This program may not be used in any manner that
 competes with the business of Gaussian, Inc. or will provide
 assistance to any competitor of Gaussian, Inc.  The licensee
 of this program is prohibited from giving any competitor of
 Gaussian, Inc. access to this program.  By using this program,
 the user acknowledges that Gaussian, Inc. is engaged in the
 business of creating and licensing software in the field of
 computational chemistry and represents and warrants to the
 licensee that it is not a competitor of Gaussian, Inc. and that
 it will not use this program in any manner prohibited above.
 ---------------------------------------------------------------
  

 Cite this work as:
 Gaussian 09, Revision D.01,
 M. J. Frisch, G. W. Trucks, H. B. Schlegel, G. E. Scuseria, 
 M. A. Robb, J. R. Cheeseman, G. Scalmani, V. Barone, B. Mennucci, 
 G. A. Petersson, H. Nakatsuji, M. Caricato, X. Li, H. P. Hratchian, 
 A. F. Izmaylov, J. Bloino, G. Zheng, J. L. Sonnenberg, M. Hada, 
 M. Ehara, K. Toyota, R. Fukuda, J. Hasegawa, M. Ishida, T. Nakajima, 
 Y. Honda, O. Kitao, H. Nakai, T. Vreven, J. A. Montgomery, Jr., 
 J. E. Peralta, F. Ogliaro, M. Bearpark, J. J. Heyd, E. Brothers, 
 K. N. Kudin, V. N. Staroverov, T. Keith, R. Kobayashi, J. Normand, 
 K. Raghavachari, A. Rendell, J. C. Burant, S. S. Iyengar, J. Tomasi, 
 M. Cossi, N. Rega, J. M. Millam, M. Klene, J. E. Knox, J. B. Cross, 
 V. Bakken, C. Adamo, J. Jaramillo, R. Gomperts, R. E. Stratmann, 
 O. Yazyev, A. J. Austin, R. Cammi, C. Pomelli, J. W. Ochterski, 
 R. L. Martin, K. Morokuma, V. G. Zakrzewski, G. A. Voth, 
 P. Salvador, J. J. Dannenberg, S. Dapprich, A. D. Daniels, 
 O. Farkas, J. B. Foresman, J. V. Ortiz, J. Cioslowski, 
 and D. J. Fox, Gaussian, Inc., Wallingford CT, 2013.
 
 ******************************************
 Gaussian 09:  EM64L-G09RevD.01 24-Apr-2013
                 3-May-2018 
 ******************************************
 %NProc=4
 Will use up to    4 processors via shared memory.
 %Mem=2GB
 %chk=2.chk
 ---------------------------------------------------------
 #p opt freq m062x/6-31+g(d) scrf=(smd,solvent=chloroform)
 ---------------------------------------------------------
 1/14=-1,18=20,19=15,26=3,38=1/1,3;
 2/9=110,12=2,17=6,18=5,40=1/2;
 3/5=1,6=6,7=11,11=2,16=1,25=1,30=1,70=32201,71=1,72=7,74=-55/1,2,3;
 4//1;
 5/5=2,38=5,53=7/2;
 6/7=2,8=2,9=2,10=2,28=1/1;
 7//1,2,3,16;
 1/14=-1,18=20,19=15,26=3/3(2);
 2/9=110/2;
 99//99;
 2/9=110/2;
 3/5=1,6=6,7=11,11=2,16=1,25=1,30=1,70=32205,71=1,72=7,74=-55/1,2,3;
 4/5=5,16=3,69=1/1;
 5/5=2,38=5,53=7/2;
 7//1,2,3,16;
 1/14=-1,18=20,19=15,26=3/3(-5);
 2/9=110/2;
 6/7=2,8=2,9=2,10=2,19=2,28=1/1;
 99/9=1/99;
 Leave Link    1 at Thu May  3 12:00:08 2018, MaxMem=   268435456 cpu:         0.1
 (Enter /ihome/crc/build/g09/g09-D.01/TAR/g09/l101.exe)
 -----
 2.g09
 -----
 Symbolic Z-matrix:
 Charge =  0 Multiplicity = 1
 C                    -3.87642   1.67333  -0.53403 
 C                    -4.93784   0.82208  -0.83978 
 N                    -4.78133  -0.52444  -0.83495 
 C                    -3.57587  -1.06176  -0.52542 
 C                    -2.48409  -0.25286  -0.21177 
 C                    -2.62647   1.13476  -0.22816 
 H                    -4.01556   2.7498   -0.532 
 C                    -6.32559   1.37394  -1.18621 
 C                    -3.45998  -2.59048  -0.52242 
 H                    -1.52629  -0.69392   0.04542 
 C                    -1.47831   2.02528   0.13879 
 H                    -0.52525   1.57655  -0.16054 
 H                    -1.46617   2.19429   1.2199 
 H                    -1.55496   2.99225  -0.36948 
 C                    -6.2392    2.28339  -2.42712 
 C                    -6.8859    2.1742    0.00522 
 C                    -7.3242    0.238    -1.50365 
 C                    -3.10107  -3.08606   0.89151 
 C                    -2.37744  -3.04366  -1.52117 
 C                    -4.79006  -3.26053  -0.93511 
 H                    -5.61221   3.1641   -2.24929 
 H                    -7.23104   2.64734  -2.71945 
 H                    -5.81509   1.74543  -3.28326 
 H                    -6.99027  -0.36343  -2.35762 
 H                    -8.31375   0.63904  -1.75226 
 H                    -7.45018  -0.4373   -0.6489 
 H                    -6.26945   3.04933   0.23899 
 H                    -6.93479   1.55594   0.90944 
 H                    -7.89807   2.5387   -0.20521 
 H                    -5.60299  -2.99872  -0.24732 
 H                    -4.69985  -4.35311  -0.93373 
 H                    -5.09599  -2.95798  -1.94375 
 H                    -2.12614  -2.7116    1.22295 
 H                    -3.05628  -4.18075   0.92658 
 H                    -3.84578  -2.75854   1.62665 
 H                    -1.38281  -2.6759   -1.24593 
 H                    -2.59455  -2.67933  -2.53227 
 H                    -2.31539  -4.13719  -1.5664 
 
 NAtoms=     38 NQM=       38 NQMF=       0 NMMI=      0 NMMIF=      0
                NMic=       0 NMicF=      0.
                    Isotopes and Nuclear Properties:
 (Nuclear quadrupole moments (NQMom) in fm**2, nuclear magnetic moments (NMagM)
  in nuclear magnetons)

  Atom         1           2           3           4           5           6           7           8           9          10
 IAtWgt=          12          12          14          12          12          12           1          12          12           1
 AtmWgt=  12.0000000  12.0000000  14.0030740  12.0000000  12.0000000  12.0000000   1.0078250  12.0000000  12.0000000   1.0078250
 NucSpn=           0           0           2           0           0           0           1           0           0           1
 AtZEff=   0.0000000   0.0000000   0.0000000   0.0000000   0.0000000   0.0000000   0.0000000   0.0000000   0.0000000   0.0000000
 NQMom=    0.0000000   0.0000000   2.0440000   0.0000000   0.0000000   0.0000000   0.0000000   0.0000000   0.0000000   0.0000000
 NMagM=    0.0000000   0.0000000   0.4037610   0.0000000   0.0000000   0.0000000   2.7928460   0.0000000   0.0000000   2.7928460
 AtZNuc=   6.0000000   6.0000000   7.0000000   6.0000000   6.0000000   6.0000000   1.0000000   6.0000000   6.0000000   1.0000000

  Atom        11          12          13          14          15          16          17          18          19          20
 IAtWgt=          12           1           1           1          12          12          12          12          12          12
 AtmWgt=  12.0000000   1.0078250   1.0078250   1.0078250  12.0000000  12.0000000  12.0000000  12.0000000  12.0000000  12.0000000
 NucSpn=           0           1           1           1           0           0           0           0           0           0
 AtZEff=   0.0000000   0.0000000   0.0000000   0.0000000   0.0000000   0.0000000   0.0000000   0.0000000   0.0000000   0.0000000
 NQMom=    0.0000000   0.0000000   0.0000000   0.0000000   0.0000000   0.0000000   0.0000000   0.0000000   0.0000000   0.0000000
 NMagM=    0.0000000   2.7928460   2.7928460   2.7928460   0.0000000   0.0000000   0.0000000   0.0000000   0.0000000   0.0000000
 AtZNuc=   6.0000000   1.0000000   1.0000000   1.0000000   6.0000000   6.0000000   6.0000000   6.0000000   6.0000000   6.0000000

  Atom        21          22          23          24          25          26          27          28          29          30
 IAtWgt=           1           1           1           1           1           1           1           1           1           1
 AtmWgt=   1.0078250   1.0078250   1.0078250   1.0078250   1.0078250   1.0078250   1.0078250   1.0078250   1.0078250   1.0078250
 NucSpn=           1           1           1           1           1           1           1           1           1           1
 AtZEff=   0.0000000   0.0000000   0.0000000   0.0000000   0.0000000   0.0000000   0.0000000   0.0000000   0.0000000   0.0000000
 NQMom=    0.0000000   0.0000000   0.0000000   0.0000000   0.0000000   0.0000000   0.0000000   0.0000000   0.0000000   0.0000000
 NMagM=    2.7928460   2.7928460   2.7928460   2.7928460   2.7928460   2.7928460   2.7928460   2.7928460   2.7928460   2.7928460
 AtZNuc=   1.0000000   1.0000000   1.0000000   1.0000000   1.0000000   1.0000000   1.0000000   1.0000000   1.0000000   1.0000000

  Atom        31          32          33          34          35          36          37          38
 IAtWgt=           1           1           1           1           1           1           1           1
 AtmWgt=   1.0078250   1.0078250   1.0078250   1.0078250   1.0078250   1.0078250   1.0078250   1.0078250
 NucSpn=           1           1           1           1           1           1           1           1
 AtZEff=   0.0000000   0.0000000   0.0000000   0.0000000   0.0000000   0.0000000   0.0000000   0.0000000
 NQMom=    0.0000000   0.0000000   0.0000000   0.0000000   0.0000000   0.0000000   0.0000000   0.0000000
 NMagM=    2.7928460   2.7928460   2.7928460   2.7928460   2.7928460   2.7928460   2.7928460   2.7928460
 AtZNuc=   1.0000000   1.0000000   1.0000000   1.0000000   1.0000000   1.0000000   1.0000000   1.0000000
 Leave Link  101 at Thu May  3 12:00:08 2018, MaxMem=   268435456 cpu:         0.4
 (Enter /ihome/crc/build/g09/g09-D.01/TAR/g09/l103.exe)

 GradGradGradGradGradGradGradGradGradGradGradGradGradGradGradGradGradGrad
 Berny optimization.
 Initialization pass.
                           ----------------------------
                           !    Initial Parameters    !
                           ! (Angstroms and Degrees)  !
 --------------------------                            --------------------------
 ! Name  Definition              Value          Derivative Info.                !
 --------------------------------------------------------------------------------
 ! R1    R(1,2)                  1.3945         estimate D2E/DX2                !
 ! R2    R(1,6)                  1.395          estimate D2E/DX2                !
 ! R3    R(1,7)                  1.0854         estimate D2E/DX2                !
 ! R4    R(2,3)                  1.3556         estimate D2E/DX2                !
 ! R5    R(2,8)                  1.5331         estimate D2E/DX2                !
 ! R6    R(3,4)                  1.3556         estimate D2E/DX2                !
 ! R7    R(4,5)                  1.3945         estimate D2E/DX2                !
 ! R8    R(4,9)                  1.5331         estimate D2E/DX2                !
 ! R9    R(5,6)                  1.395          estimate D2E/DX2                !
 ! R10   R(5,10)                 1.0854         estimate D2E/DX2                !
 ! R11   R(6,11)                 1.4987         estimate D2E/DX2                !
 ! R12   R(8,15)                 1.5409         estimate D2E/DX2                !
 ! R13   R(8,16)                 1.5407         estimate D2E/DX2                !
 ! R14   R(8,17)                 1.5454         estimate D2E/DX2                !
 ! R15   R(9,18)                 1.5406         estimate D2E/DX2                !
 ! R16   R(9,19)                 1.541          estimate D2E/DX2                !
 ! R17   R(9,20)                 1.5454         estimate D2E/DX2                !
 ! R18   R(11,12)                1.0951         estimate D2E/DX2                !
 ! R19   R(11,13)                1.0943         estimate D2E/DX2                !
 ! R20   R(11,14)                1.0951         estimate D2E/DX2                !
 ! R21   R(15,21)                1.0956         estimate D2E/DX2                !
 ! R22   R(15,22)                1.0962         estimate D2E/DX2                !
 ! R23   R(15,23)                1.0965         estimate D2E/DX2                !
 ! R24   R(16,27)                1.0957         estimate D2E/DX2                !
 ! R25   R(16,28)                1.0965         estimate D2E/DX2                !
 ! R26   R(16,29)                1.0962         estimate D2E/DX2                !
 ! R27   R(17,24)                1.0966         estimate D2E/DX2                !
 ! R28   R(17,25)                1.0963         estimate D2E/DX2                !
 ! R29   R(17,26)                1.0966         estimate D2E/DX2                !
 ! R30   R(18,33)                1.0957         estimate D2E/DX2                !
 ! R31   R(18,34)                1.0962         estimate D2E/DX2                !
 ! R32   R(18,35)                1.0965         estimate D2E/DX2                !
 ! R33   R(19,36)                1.0956         estimate D2E/DX2                !
 ! R34   R(19,37)                1.0964         estimate D2E/DX2                !
 ! R35   R(19,38)                1.0962         estimate D2E/DX2                !
 ! R36   R(20,30)                1.0966         estimate D2E/DX2                !
 ! R37   R(20,31)                1.0963         estimate D2E/DX2                !
 ! R38   R(20,32)                1.0966         estimate D2E/DX2                !
 ! A1    A(2,1,6)              119.6303         estimate D2E/DX2                !
 ! A2    A(2,1,7)              120.5454         estimate D2E/DX2                !
 ! A3    A(6,1,7)              119.8243         estimate D2E/DX2                !
 ! A4    A(1,2,3)              121.1767         estimate D2E/DX2                !
 ! A5    A(1,2,8)              121.2505         estimate D2E/DX2                !
 ! A6    A(3,2,8)              117.5721         estimate D2E/DX2                !
 ! A7    A(2,3,4)              119.8148         estimate D2E/DX2                !
 ! A8    A(3,4,5)              121.1737         estimate D2E/DX2                !
 ! A9    A(3,4,9)              117.5745         estimate D2E/DX2                !
 ! A10   A(5,4,9)              121.2502         estimate D2E/DX2                !
 ! A11   A(4,5,6)              119.6327         estimate D2E/DX2                !
 ! A12   A(4,5,10)             120.5613         estimate D2E/DX2                !
 ! A13   A(6,5,10)             119.8059         estimate D2E/DX2                !
 ! A14   A(1,6,5)              118.5587         estimate D2E/DX2                !
 ! A15   A(1,6,11)             120.7143         estimate D2E/DX2                !
 ! A16   A(5,6,11)             120.6635         estimate D2E/DX2                !
 ! A17   A(2,8,15)             110.101          estimate D2E/DX2                !
 ! A18   A(2,8,16)             109.9634         estimate D2E/DX2                !
 ! A19   A(2,8,17)             111.5147         estimate D2E/DX2                !
 ! A20   A(15,8,16)            109.6679         estimate D2E/DX2                !
 ! A21   A(15,8,17)            107.7353         estimate D2E/DX2                !
 ! A22   A(16,8,17)            107.7957         estimate D2E/DX2                !
 ! A23   A(4,9,18)             109.8859         estimate D2E/DX2                !
 ! A24   A(4,9,19)             110.1858         estimate D2E/DX2                !
 ! A25   A(4,9,20)             111.5152         estimate D2E/DX2                !
 ! A26   A(18,9,19)            109.6671         estimate D2E/DX2                !
 ! A27   A(18,9,20)            107.8247         estimate D2E/DX2                !
 ! A28   A(19,9,20)            107.6989         estimate D2E/DX2                !
 ! A29   A(6,11,12)            110.8758         estimate D2E/DX2                !
 ! A30   A(6,11,13)            110.0091         estimate D2E/DX2                !
 ! A31   A(6,11,14)            110.9413         estimate D2E/DX2                !
 ! A32   A(12,11,13)           108.8851         estimate D2E/DX2                !
 ! A33   A(12,11,14)           107.2093         estimate D2E/DX2                !
 ! A34   A(13,11,14)           108.8409         estimate D2E/DX2                !
 ! A35   A(8,15,21)            112.0738         estimate D2E/DX2                !
 ! A36   A(8,15,22)            111.0993         estimate D2E/DX2                !
 ! A37   A(8,15,23)            111.1561         estimate D2E/DX2                !
 ! A38   A(21,15,22)           107.1082         estimate D2E/DX2                !
 ! A39   A(21,15,23)           107.4439         estimate D2E/DX2                !
 ! A40   A(22,15,23)           107.737          estimate D2E/DX2                !
 ! A41   A(8,16,27)            112.0383         estimate D2E/DX2                !
 ! A42   A(8,16,28)            111.1639         estimate D2E/DX2                !
 ! A43   A(8,16,29)            111.1039         estimate D2E/DX2                !
 ! A44   A(27,16,28)           107.4281         estimate D2E/DX2                !
 ! A45   A(27,16,29)           107.1498         estimate D2E/DX2                !
 ! A46   A(28,16,29)           107.736          estimate D2E/DX2                !
 ! A47   A(8,17,24)            111.4893         estimate D2E/DX2                !
 ! A48   A(8,17,25)            111.159          estimate D2E/DX2                !
 ! A49   A(8,17,26)            111.5167         estimate D2E/DX2                !
 ! A50   A(24,17,25)           107.3914         estimate D2E/DX2                !
 ! A51   A(24,17,26)           107.7126         estimate D2E/DX2                !
 ! A52   A(25,17,26)           107.358          estimate D2E/DX2                !
 ! A53   A(9,18,33)            112.0222         estimate D2E/DX2                !
 ! A54   A(9,18,34)            111.1072         estimate D2E/DX2                !
 ! A55   A(9,18,35)            111.162          estimate D2E/DX2                !
 ! A56   A(33,18,34)           107.1727         estimate D2E/DX2                !
 ! A57   A(33,18,35)           107.4234         estimate D2E/DX2                !
 ! A58   A(34,18,35)           107.7335         estimate D2E/DX2                !
 ! A59   A(9,19,36)            112.0993         estimate D2E/DX2                !
 ! A60   A(9,19,37)            111.1521         estimate D2E/DX2                !
 ! A61   A(9,19,38)            111.0913         estimate D2E/DX2                !
 ! A62   A(36,19,37)           107.4519         estimate D2E/DX2                !
 ! A63   A(36,19,38)           107.0868         estimate D2E/DX2                !
 ! A64   A(37,19,38)           107.736          estimate D2E/DX2                !
 ! A65   A(9,20,30)            111.5324         estimate D2E/DX2                !
 ! A66   A(9,20,31)            111.1582         estimate D2E/DX2                !
 ! A67   A(9,20,32)            111.4758         estimate D2E/DX2                !
 ! A68   A(30,20,31)           107.3469         estimate D2E/DX2                !
 ! A69   A(30,20,32)           107.7111         estimate D2E/DX2                !
 ! A70   A(31,20,32)           107.4026         estimate D2E/DX2                !
 ! D1    D(6,1,2,3)              0.5499         estimate D2E/DX2                !
 ! D2    D(6,1,2,8)           -179.7795         estimate D2E/DX2                !
 ! D3    D(7,1,2,3)           -179.4301         estimate D2E/DX2                !
 ! D4    D(7,1,2,8)              0.2405         estimate D2E/DX2                !
 ! D5    D(2,1,6,5)             -1.2751         estimate D2E/DX2                !
 ! D6    D(2,1,6,11)          -178.3962         estimate D2E/DX2                !
 ! D7    D(7,1,6,5)            178.7051         estimate D2E/DX2                !
 ! D8    D(7,1,6,11)             1.584          estimate D2E/DX2                !
 ! D9    D(1,2,3,4)              0.1612         estimate D2E/DX2                !
 ! D10   D(8,2,3,4)           -179.5212         estimate D2E/DX2                !
 ! D11   D(1,2,8,15)            59.7319         estimate D2E/DX2                !
 ! D12   D(1,2,8,16)           -61.2153         estimate D2E/DX2                !
 ! D13   D(1,2,8,17)           179.2659         estimate D2E/DX2                !
 ! D14   D(3,2,8,15)          -120.586          estimate D2E/DX2                !
 ! D15   D(3,2,8,16)           118.4668         estimate D2E/DX2                !
 ! D16   D(3,2,8,17)            -1.0521         estimate D2E/DX2                !
 ! D17   D(2,3,4,5)             -0.1194         estimate D2E/DX2                !
 ! D18   D(2,3,4,9)            179.4243         estimate D2E/DX2                !
 ! D19   D(3,4,5,6)             -0.6329         estimate D2E/DX2                !
 ! D20   D(3,4,5,10)           179.313          estimate D2E/DX2                !
 ! D21   D(9,4,5,6)            179.8402         estimate D2E/DX2                !
 ! D22   D(9,4,5,10)            -0.2139         estimate D2E/DX2                !
 ! D23   D(3,4,9,18)          -117.6448         estimate D2E/DX2                !
 ! D24   D(3,4,9,19)           121.4045         estimate D2E/DX2                !
 ! D25   D(3,4,9,20)             1.8597         estimate D2E/DX2                !
 ! D26   D(5,4,9,18)            61.8986         estimate D2E/DX2                !
 ! D27   D(5,4,9,19)           -59.0522         estimate D2E/DX2                !
 ! D28   D(5,4,9,20)          -178.5969         estimate D2E/DX2                !
 ! D29   D(4,5,6,1)              1.3153         estimate D2E/DX2                !
 ! D30   D(4,5,6,11)           178.4379         estimate D2E/DX2                !
 ! D31   D(10,5,6,1)          -178.631          estimate D2E/DX2                !
 ! D32   D(10,5,6,11)           -1.5084         estimate D2E/DX2                !
 ! D33   D(1,6,11,12)         -150.0553         estimate D2E/DX2                !
 ! D34   D(1,6,11,13)           89.4444         estimate D2E/DX2                !
 ! D35   D(1,6,11,14)          -31.0431         estimate D2E/DX2                !
 ! D36   D(5,6,11,12)           32.8844         estimate D2E/DX2                !
 ! D37   D(5,6,11,13)          -87.616          estimate D2E/DX2                !
 ! D38   D(5,6,11,14)          151.8966         estimate D2E/DX2                !
 ! D39   D(2,8,15,21)          -63.0446         estimate D2E/DX2                !
 ! D40   D(2,8,15,22)          177.1714         estimate D2E/DX2                !
 ! D41   D(2,8,15,23)           57.2069         estimate D2E/DX2                !
 ! D42   D(16,8,15,21)          58.0795         estimate D2E/DX2                !
 ! D43   D(16,8,15,22)         -61.7045         estimate D2E/DX2                !
 ! D44   D(16,8,15,23)         178.331          estimate D2E/DX2                !
 ! D45   D(17,8,15,21)         175.1485         estimate D2E/DX2                !
 ! D46   D(17,8,15,22)          55.3646         estimate D2E/DX2                !
 ! D47   D(17,8,15,23)         -64.5999         estimate D2E/DX2                !
 ! D48   D(2,8,16,27)           62.8109         estimate D2E/DX2                !
 ! D49   D(2,8,16,28)          -57.4016         estimate D2E/DX2                !
 ! D50   D(2,8,16,29)         -177.373          estimate D2E/DX2                !
 ! D51   D(15,8,16,27)         -58.3962         estimate D2E/DX2                !
 ! D52   D(15,8,16,28)        -178.6087         estimate D2E/DX2                !
 ! D53   D(15,8,16,29)          61.4199         estimate D2E/DX2                !
 ! D54   D(17,8,16,27)        -175.4273         estimate D2E/DX2                !
 ! D55   D(17,8,16,28)          64.3602         estimate D2E/DX2                !
 ! D56   D(17,8,16,29)         -55.6112         estimate D2E/DX2                !
 ! D57   D(2,8,17,24)          -60.1054         estimate D2E/DX2                !
 ! D58   D(2,8,17,25)         -179.896          estimate D2E/DX2                !
 ! D59   D(2,8,17,26)           60.3375         estimate D2E/DX2                !
 ! D60   D(15,8,17,24)          60.8201         estimate D2E/DX2                !
 ! D61   D(15,8,17,25)         -58.9705         estimate D2E/DX2                !
 ! D62   D(15,8,17,26)        -178.737          estimate D2E/DX2                !
 ! D63   D(16,8,17,24)         179.0997         estimate D2E/DX2                !
 ! D64   D(16,8,17,25)          59.3092         estimate D2E/DX2                !
 ! D65   D(16,8,17,26)         -60.4574         estimate D2E/DX2                !
 ! D66   D(4,9,18,33)          -62.6532         estimate D2E/DX2                !
 ! D67   D(4,9,18,34)          177.5102         estimate D2E/DX2                !
 ! D68   D(4,9,18,35)           57.5409         estimate D2E/DX2                !
 ! D69   D(19,9,18,33)          58.6091         estimate D2E/DX2                !
 ! D70   D(19,9,18,34)         -61.2275         estimate D2E/DX2                !
 ! D71   D(19,9,18,35)         178.8033         estimate D2E/DX2                !
 ! D72   D(20,9,18,33)         175.6129         estimate D2E/DX2                !
 ! D73   D(20,9,18,34)          55.7762         estimate D2E/DX2                !
 ! D74   D(20,9,18,35)         -64.193          estimate D2E/DX2                !
 ! D75   D(4,9,19,36)           62.9547         estimate D2E/DX2                !
 ! D76   D(4,9,19,37)          -57.3218         estimate D2E/DX2                !
 ! D77   D(4,9,19,38)         -177.2769         estimate D2E/DX2                !
 ! D78   D(18,9,19,36)         -58.1269         estimate D2E/DX2                !
 ! D79   D(18,9,19,37)        -178.4033         estimate D2E/DX2                !
 ! D80   D(18,9,19,38)          61.6416         estimate D2E/DX2                !
 ! D81   D(20,9,19,36)        -175.2096         estimate D2E/DX2                !
 ! D82   D(20,9,19,37)          64.514          estimate D2E/DX2                !
 ! D83   D(20,9,19,38)         -55.4411         estimate D2E/DX2                !
 ! D84   D(4,9,20,30)          -60.397          estimate D2E/DX2                !
 ! D85   D(4,9,20,31)          179.8405         estimate D2E/DX2                !
 ! D86   D(4,9,20,32)           60.0454         estimate D2E/DX2                !
 ! D87   D(18,9,20,30)          60.3213         estimate D2E/DX2                !
 ! D88   D(18,9,20,31)         -59.4412         estimate D2E/DX2                !
 ! D89   D(18,9,20,32)        -179.2362         estimate D2E/DX2                !
 ! D90   D(19,9,20,30)         178.5961         estimate D2E/DX2                !
 ! D91   D(19,9,20,31)          58.8336         estimate D2E/DX2                !
 ! D92   D(19,9,20,32)         -60.9615         estimate D2E/DX2                !
 --------------------------------------------------------------------------------
 Trust Radius=3.00D-01 FncErr=1.00D-07 GrdErr=1.00D-06
 Number of steps in this run=    210 maximum allowed number of steps=    228.
 GradGradGradGradGradGradGradGradGradGradGradGradGradGradGradGradGradGrad

 Leave Link  103 at Thu May  3 12:00:08 2018, MaxMem=   268435456 cpu:         0.0
 (Enter /ihome/crc/build/g09/g09-D.01/TAR/g09/l202.exe)
                          Input orientation:                          
 ---------------------------------------------------------------------
 Center     Atomic      Atomic             Coordinates (Angstroms)
 Number     Number       Type             X           Y           Z
 ---------------------------------------------------------------------
      1          6           0       -3.876416    1.673328   -0.534030
      2          6           0       -4.937836    0.822077   -0.839780
      3          7           0       -4.781330   -0.524436   -0.834952
      4          6           0       -3.575871   -1.061759   -0.525416
      5          6           0       -2.484093   -0.252861   -0.211768
      6          6           0       -2.626473    1.134764   -0.228160
      7          1           0       -4.015561    2.749800   -0.531998
      8          6           0       -6.325586    1.373937   -1.186206
      9          6           0       -3.459983   -2.590482   -0.522421
     10          1           0       -1.526286   -0.693924    0.045418
     11          6           0       -1.478307    2.025278    0.138793
     12          1           0       -0.525253    1.576553   -0.160541
     13          1           0       -1.466171    2.194285    1.219905
     14          1           0       -1.554963    2.992253   -0.369483
     15          6           0       -6.239204    2.283387   -2.427124
     16          6           0       -6.885901    2.174200    0.005220
     17          6           0       -7.324199    0.237999   -1.503651
     18          6           0       -3.101071   -3.086057    0.891506
     19          6           0       -2.377442   -3.043658   -1.521174
     20          6           0       -4.790057   -3.260533   -0.935110
     21          1           0       -5.612215    3.164105   -2.249294
     22          1           0       -7.231039    2.647340   -2.719450
     23          1           0       -5.815093    1.745431   -3.283255
     24          1           0       -6.990273   -0.363429   -2.357618
     25          1           0       -8.313751    0.639035   -1.752263
     26          1           0       -7.450177   -0.437300   -0.648904
     27          1           0       -6.269447    3.049333    0.238985
     28          1           0       -6.934789    1.555937    0.909436
     29          1           0       -7.898066    2.538697   -0.205209
     30          1           0       -5.602995   -2.998719   -0.247322
     31          1           0       -4.699851   -4.353114   -0.933728
     32          1           0       -5.095990   -2.957981   -1.943753
     33          1           0       -2.126138   -2.711603    1.222947
     34          1           0       -3.056280   -4.180750    0.926577
     35          1           0       -3.845780   -2.758545    1.626652
     36          1           0       -1.382805   -2.675899   -1.245927
     37          1           0       -2.594553   -2.679328   -2.532275
     38          1           0       -2.315387   -4.137188   -1.566398
 ---------------------------------------------------------------------
                    Distance matrix (angstroms):
                    1          2          3          4          5
     1  C    0.000000
     2  C    1.394534   0.000000
     3  N    2.395744   1.355587   0.000000
     4  C    2.751564   2.345765   1.355603   0.000000
     5  C    2.398462   2.751499   2.395706   1.394515   0.000000
     6  C    1.394979   2.411276   2.786494   2.411313   1.395007
     7  H    1.085429   2.159036   3.376212   3.836842   3.385841
     8  C    2.552136   1.533104   2.472231   3.732317   4.284048
     9  C    4.284114   3.732336   2.472282   1.533112   2.552124
    10  H    3.385669   3.836732   3.376253   2.159155   1.085392
    11  C    2.515450   3.791258   4.284762   3.790877   2.514839
    12  H    3.373301   4.527858   4.794078   4.049704   2.680753
    13  H    3.026048   4.263534   4.754383   4.254269   3.012371
    14  H    2.675030   4.046563   4.795123   4.532482   3.379189
    15  C    3.088486   2.519651   3.541790   4.679726   5.043928
    16  C    3.098171   2.517383   3.523882   4.659324   5.031265
    17  C    3.858437   2.544916   2.737636   4.086108   5.033541
    18  C    5.028426   4.652373   3.516509   2.516126   3.102399
    19  C    5.046914   4.686558   3.549092   2.521049   3.084553
    20  C    5.033746   4.086397   2.737944   2.544937   3.858340
    21  H    2.859640   2.815423   4.036839   4.997637   5.060861
    22  H    4.120468   3.481885   4.428609   5.650793   6.101896
    23  H    3.364804   2.755491   3.495018   4.527704   4.952047
    24  H    4.143665   2.814561   2.687725   3.937355   4.992250
    25  H    4.716333   3.501846   3.830551   5.181251   6.095368
    26  H    4.152073   2.816793   2.676743   3.926251   4.988697
    27  H    2.866625   2.810265   4.017420   4.974007   5.043468
    28  H    3.383935   2.754292   3.465289   4.493713   4.933309
    29  H    4.126822   3.480291   4.415134   5.634464   6.091301
    30  H    4.989118   3.923255   2.672549   2.817513   4.155544
    31  H    6.095556   5.181512   3.830819   3.501866   4.716236
    32  H    4.992365   3.941143   2.692693   2.813912   4.139982
    33  H    5.037664   4.964613   4.008577   2.807220   2.869138
    34  H    6.089025   5.629259   4.409922   3.479420   4.129351
    35  H    4.930617   4.482938   3.453403   2.753785   3.392998
    36  H    5.063662   5.003903   4.043225   2.816757   2.855422
    37  H    4.958001   4.540414   3.508056   2.758078   3.359270
    38  H    6.104481   5.656812   4.434846   3.482919   4.117217
                    6          7          8          9         10
     6  C    0.000000
     7  H    2.151796   0.000000
     8  C    3.828641   2.767165   0.000000
     9  C    3.828679   5.369113   4.936488   0.000000
    10  H    2.151594   4.288256   5.369006   2.767409   0.000000
    11  C    1.498651   2.722600   5.067147   5.066506   2.721228
    12  H    2.148226   3.700911   5.893803   5.109578   2.489891
    13  H    2.136768   3.142794   5.484182   5.468545   3.118459
    14  H    2.149039   2.477850   5.103413   5.900798   3.709564
    15  C    4.382534   2.958653   1.540921   5.925079   6.098314
    16  C    4.390629   2.976369   1.540737   5.892157   6.078916
    17  C    4.949717   4.266185   1.545430   4.888280   6.073210
    18  C    4.392520   6.076174   5.882681   1.540650   2.986321
    19  C    4.380994   6.101316   5.934239   1.541029   2.949563
    20  C    4.949698   6.073422   4.888682   1.545438   4.266277
    21  H    4.137374   2.381188   2.200853   6.381964   6.070000
    22  H    5.449445   3.890340   2.189118   6.817814   7.166083
    23  H    4.458006   3.437512   2.190029   5.654104   5.951838
    24  H    5.081528   4.676964   2.198285   4.559677   5.978207
    25  H    5.908788   4.941539   2.193924   5.958301   7.146895
    26  H    5.090828   4.686988   2.198631   4.535839   5.969960
    27  H    4.141867   2.400862   2.200290   6.346680   6.045413
    28  H    4.475835   3.467698   2.189970   5.596184   5.921174
    29  H    5.455388   3.901949   2.188999   6.790117   7.149282
    30  H    5.093695   5.970465   4.530316   2.198826   4.692262
    31  H    5.908767   7.147099   5.958681   2.193927   4.941650
    32  H    5.078616   5.978223   4.566322   2.198127   4.671781
    33  H    4.141326   6.039592   6.334905   2.200028   2.411934
    34  H    5.456449   7.147040   6.782829   2.188954   3.908359
    35  H    4.481617   5.918654   5.580235   2.189885   3.484682
    36  H    4.135663   6.072834   6.390291   2.201233   2.369890
    37  H    4.456149   5.957836   5.671108   2.190063   3.424546
    38  H    5.448039   7.168764   6.826327   2.189130   3.882872
                   11         12         13         14         15
    11  C    0.000000
    12  H    1.095111   0.000000
    13  H    1.094310   1.781165   0.000000
    14  H    1.095107   1.762999   1.780671   0.000000
    15  C    5.414489   6.187588   6.007546   5.165122   0.000000
    16  C    5.411293   6.390814   5.554219   5.406340   2.519213
    17  C    6.329806   7.058423   6.749912   6.492791   2.492715
    18  C    5.415320   5.429694   5.537397   6.397374   7.049264
    19  C    5.409071   5.160260   5.981637   6.199603   6.641638
    20  C    6.329357   6.495069   6.741466   7.062797   5.921249
    21  H    4.908063   5.723670   5.492320   4.474876   1.095629
    22  H    6.453715   7.256871   6.996963   6.152979   1.096200
    23  H    5.531405   6.145102   6.276388   5.309740   1.096461
    24  H    6.505364   7.098392   7.060898   6.689983   2.752194
    25  H    7.226414   8.004575   7.625086   7.289097   2.731863
    26  H    6.507533   7.228325   6.798972   6.825940   3.468524
    27  H    4.900383   5.943440   4.976422   4.753930   2.774117
    28  H    5.530585   6.498263   5.514496   5.713245   3.485062
    29  H    6.449438   7.435462   6.596882   6.361420   2.784586
    30  H    6.511734   6.835504   6.799512   7.231406   5.749517
    31  H    7.225824   7.292876   7.613360   8.010187   6.974452
    32  H    6.500577   6.680830   7.051962   7.100879   5.386327
    33  H    4.902358   4.781752   4.950081   5.949457   7.429014
    34  H    6.451774   6.382356   6.576896   7.442156   7.947539
    35  H    5.541084   5.745697   5.509855   6.504158   6.898019
    36  H    4.901799   4.471779   5.459484   5.738095   7.040906
    37  H    5.523941   5.293359   6.253335   6.158347   6.158172
    38  H    6.448594   6.150435   6.969376   7.269097   7.573702
                   16         17         18         19         20
    16  C    0.000000
    17  C    2.493525   0.000000
    18  C    6.540700   5.883956   0.000000
    19  C    7.062728   5.936327   2.519218   0.000000
    20  C    5.900264   4.357160   2.493922   2.492231   0.000000
    21  H    2.772187   3.471162   7.432025   7.037772   6.609009
    22  H    2.786899   2.700328   7.935206   7.575007   6.636658
    23  H    3.484902   2.777902   6.938143   6.152865   5.623537
    24  H    3.468928   1.096578   5.752861   5.400136   3.906109
    25  H    2.735732   1.096290   6.930935   6.989663   5.318909
    26  H    2.750676   1.096582   5.320104   5.769453   3.889576
    27  H    1.095683   3.471726   6.935951   7.441129   6.586465
    28  H    1.096470   2.776975   6.020451   6.916180   5.585751
    29  H    1.096183   2.703421   7.473407   7.960637   6.619936
    30  H    5.335608   3.875210   2.750306   3.468271   1.096571
    31  H    6.947393   5.318866   2.737336   2.730082   1.096299
    32  H    5.774215   3.920828   3.469121   2.752529   1.096583
    33  H    6.928872   6.569195   1.095702   2.775539   3.472031
    34  H    7.476650   6.606549   1.096170   2.783035   2.705302
    35  H    6.016922   5.556751   1.096492   3.485128   2.776019
    36  H    7.441297   6.622491   2.772956   1.095587   3.470990
    37  H    6.957822   5.651409   3.484862   1.096448   2.776504
    38  H    7.949415   6.650894   2.786300   1.096222   2.700192
                   21         22         23         24         25
    21  H    0.000000
    22  H    1.763146   0.000000
    23  H    1.767164   1.770938   0.000000
    24  H    3.788704   3.041977   2.585565   0.000000
    25  H    3.731128   2.478105   3.132306   1.767197   0.000000
    26  H    4.348502   3.721584   3.791783   1.771065   1.766821
    27  H    2.576172   3.136654   3.783223   4.348435   3.735476
    28  H    3.783250   3.801019   4.343764   3.789550   3.134787
    29  H    3.129623   2.603486   3.800319   3.725493   2.484932
    30  H    6.479844   6.374946   5.636385   3.650019   4.779780
    31  H    7.685812   7.655199   6.629954   4.815712   6.217059
    32  H    6.151405   6.048121   4.943021   3.239026   4.830029
    33  H    7.663754   8.385749   7.333444   6.480291   7.639712
    34  H    8.400348   8.794598   7.775176   6.390162   7.618892
    35  H    7.295275   7.718302   6.947747   5.612382   6.551594
    36  H    7.280130   8.044252   6.583619   6.166609   7.699557
    37  H    6.582710   7.064378   5.523979   4.971544   6.658016
    38  H    8.040167   8.457126   7.056964   6.059855   7.669890
                   26         27         28         29         30
    26  H    0.000000
    27  H    3.786698   0.000000
    28  H    2.582062   1.767036   0.000000
    29  H    3.042044   1.763649   1.770919   0.000000
    30  H    3.183429   6.104064   4.884328   5.994339   0.000000
    31  H    4.793643   7.657357   6.580964   7.632587   1.766694
    32  H    3.684110   6.498398   5.647772   6.409964   1.771043
    33  H    6.084544   7.164047   6.436871   7.932240   3.785850
    34  H    5.983468   7.941746   6.924789   8.359115   3.043188
    35  H    4.853660   6.444473   5.354543   6.916467   2.580169
    36  H    6.494672   7.672191   7.306062   8.409741   4.348727
    37  H    5.670173   7.348625   6.972840   7.795530   3.791272
    38  H    6.395079   8.398815   7.738236   8.808325   3.720811
                   31         32         33         34         35
    31  H    0.000000
    32  H    1.767335   0.000000
    33  H    3.737620   4.348415   0.000000
    34  H    2.488327   3.727516   1.763914   0.000000
    35  H    3.134906   3.788218   1.767017   1.770899   0.000000
    36  H    3.730055   3.788704   2.578596   3.128077   3.784810
    37  H    3.128768   2.584800   3.784461   3.798830   4.343791
    38  H    2.476401   3.043793   3.138241   2.601105   3.799780
                   36         37         38
    36  H    0.000000
    37  H    1.767211   0.000000
    38  H    1.762888   1.770933   0.000000
 Stoichiometry    C14H23N
 Framework group  C1[X(C14H23N)]
 Deg. of freedom   108
 Full point group                 C1      NOp   1
 Largest Abelian subgroup         C1      NOp   1
 Largest concise Abelian subgroup C1      NOp   1
                         Standard orientation:                         
 ---------------------------------------------------------------------
 Center     Atomic      Atomic             Coordinates (Angstroms)
 Number     Number       Type             X           Y           Z
 ---------------------------------------------------------------------
      1          6           0       -1.199245    1.475288   -0.009308
      2          6           0       -1.172943    0.081002   -0.009145
      3          7           0       -0.000109   -0.598757   -0.011224
      4          6           0        1.172822    0.080869   -0.010201
      5          6           0        1.199217    1.475134   -0.009518
      6          6           0        0.000015    2.187711   -0.023284
      7          1           0       -2.144219    2.009199    0.001666
      8          6           0       -2.468334   -0.738919    0.000925
      9          6           0        2.468153   -0.739145    0.001000
     10          1           0        2.144037    2.009219    0.002505
     11          6           0        0.000770    3.685940    0.012271
     12          1           0        0.874153    4.088281   -0.511742
     13          1           0        0.017460    4.035874    1.048988
     14          1           0       -0.888610    4.089656   -0.482982
     15          6           0       -3.315381   -0.406157   -1.242546
     16          6           0       -3.276073   -0.430706    1.276241
     17          6           0       -2.178523   -2.256797   -0.019307
     18          6           0        3.264607   -0.443248    1.286188
     19          6           0        3.326238   -0.394694   -1.231808
     20          6           0        2.178600   -2.256733   -0.037257
     21          1           0       -3.634749    0.641821   -1.254779
     22          1           0       -4.222757   -1.020227   -1.277788
     23          1           0       -2.752277   -0.588959   -2.165435
     24          1           0       -1.616511   -2.546548   -0.915226
     25          1           0       -3.108474   -2.837324   -0.013849
     26          1           0       -1.594424   -2.566432    0.855590
     27          1           0       -3.589551    0.618226    1.320889
     28          1           0       -2.686372   -0.635876    2.177575
     29          1           0       -4.184675   -1.041974    1.325329
     30          1           0        1.588891   -2.575947    0.830391
     31          1           0        3.108558   -2.837267   -0.031891
     32          1           0        1.622406   -2.536693   -0.939900
     33          1           0        3.574445    0.606082    1.345100
     34          1           0        4.174426   -1.052632    1.335871
     35          1           0        2.668115   -0.660151    2.180306
     36          1           0        3.645337    0.653393   -1.232087
     37          1           0        2.771667   -0.569831   -2.161311
     38          1           0        4.234349   -1.007874   -1.264158
 ---------------------------------------------------------------------
 Rotational constants (GHZ):      0.7856214      0.4368683      0.3212496
 Leave Link  202 at Thu May  3 12:00:08 2018, MaxMem=   268435456 cpu:         0.0
 (Enter /ihome/crc/build/g09/g09-D.01/TAR/g09/l301.exe)
 Standard basis: 6-31+G(d) (6D, 7F)
 Ernie: Thresh=  0.10000D-02 Tol=  0.10000D-05 Strict=F.
 There are   331 symmetry adapted cartesian basis functions of A   symmetry.
 There are   331 symmetry adapted basis functions of A   symmetry.
   331 basis functions,   572 primitive gaussians,   331 cartesian basis functions
    57 alpha electrons       57 beta electrons
       nuclear repulsion energy      1039.8954825145 Hartrees.
 IExCor= 4336 DFT=T Ex+Corr=M062X ExCW=0 ScaHFX=  0.540000
 ScaDFX=  1.000000  1.000000  1.000000  1.000000 ScalE2=  1.000000  1.000000
 IRadAn=      0 IRanWt=     -1 IRanGd=            0 ICorTp=0 IEmpDi=  4
 NAtoms=   38 NActive=   38 NUniq=   38 SFac= 1.00D+00 NAtFMM=   60 NAOKFM=F Big=F
 Integral buffers will be    131072 words long.
 Raffenetti 2 integral format.
 Two-electron integral symmetry is turned on.
 ------------------------------------------------------------------------------
 Polarizable Continuum Model (PCM)
 =================================
 Model                : PCM (using non-symmetric T matrix).
 Atomic radii         : SMD-Coulomb.
 Polarization charges : Total charges.
 Charge compensation  : None.
 Solution method      : On-the-fly selection.
 Cavity type          : VdW (van der Waals Surface) (Alpha=1.000).
 Cavity algorithm     : GePol (No added spheres)
                        Default sphere list used, NSphG=   38.
                        Lebedev-Laikov grids with approx.  5.0 points / Ang**2.
                        Smoothing algorithm: Karplus/York (Gamma=1.0000).
                        Polarization charges: spherical gaussians, with
                                              point-specific exponents (IZeta= 3).
                        Self-potential: point-specific (ISelfS= 7).
                        Self-field    : sphere-specific E.n sum rule (ISelfD= 2).
 1st derivatives      : Analytical E(r).r(x)/FMM algorithm (CHGder, D1EAlg=3).
                        Cavity 1st derivative terms included.
 Solvent              : Chloroform, Eps=   4.711300 Eps(inf)=   2.090627
 ------------------------------------------------------------------------------
 GePol: Number of generator spheres                  =      38
 GePol: Total number of spheres                      =      38
 GePol: Number of exposed spheres                    =      38 (100.00%)
 GePol: Number of points                             =    2571
 GePol: Average weight of points                     =       0.11
 GePol: Minimum weight of points                     =   0.37D-10
 GePol: Maximum weight of points                     =    0.17992
 GePol: Number of points with low weight             =     164
 GePol: Fraction of low-weight points (<1% of avg)   =       6.38%
 GePol: Cavity surface area                          =    278.211 Ang**2
 GePol: Cavity volume                                =    247.406 Ang**3
 ------------------------------------------------------------------------------
 Atomic radii for non-electrostatic terms: SMD-CDS.
 ------------------------------------------------------------------------------
 PCM non-electrostatic energy =        -0.0083827494 Hartrees.
 Nuclear repulsion after PCM non-electrostatic terms =     1039.8870997651 Hartrees.
 Leave Link  301 at Thu May  3 12:00:08 2018, MaxMem=   268435456 cpu:         0.2
 (Enter /ihome/crc/build/g09/g09-D.01/TAR/g09/l302.exe)
 NPDir=0 NMtPBC=     1 NCelOv=     1 NCel=       1 NClECP=     1 NCelD=      1
         NCelK=      1 NCelE2=     1 NClLst=     1 CellRange=     0.0.
 One-electron integrals computed using PRISM.
 NBasis=   331 RedAO= T EigKep=  1.23D-06  NBF=   331
 NBsUse=   331 1.00D-06 EigRej= -1.00D+00 NBFU=   331
 Precomputing XC quadrature grid using
 IXCGrd= 4 IRadAn=           0 IRanWt=          -1 IRanGd=           0 AccXCQ= 0.00D+00.
 Generated NRdTot=       0 NPtTot=           0 NUsed=           0 NTot=          32
 NSgBfM=   330   330   330   330   330 MxSgAt=    38 MxSgA2=    38.
 Leave Link  302 at Thu May  3 12:00:08 2018, MaxMem=   268435456 cpu:         1.4
 (Enter /ihome/crc/build/g09/g09-D.01/TAR/g09/l303.exe)
 DipDrv:  MaxL=1.
 Leave Link  303 at Thu May  3 12:00:09 2018, MaxMem=   268435456 cpu:         0.1
 (Enter /ihome/crc/build/g09/g09-D.01/TAR/g09/l401.exe)
 ExpMin= 4.38D-02 ExpMax= 4.17D+03 ExpMxC= 6.27D+02 IAcc=2 IRadAn=         4 AccDes= 0.00D+00
 Harris functional with IExCor= 1009 and IRadAn=       4 diagonalized for initial guess.
 HarFok:  IExCor= 1009 AccDes= 0.00D+00 IRadAn=         4 IDoV= 1 UseB2=F ITyADJ=14
 ICtDFT=  3500011 ScaDFX=  1.000000  1.000000  1.000000  1.000000
 FoFCou: FMM=F IPFlag=           0 FMFlag=      100000 FMFlg1=           0
         NFxFlg=           0 DoJE=T BraDBF=F KetDBF=T FulRan=T
         wScrn=  0.000000 ICntrl=     500 IOpCl=  0 I1Cent=   200000004 NGrid=           0
         NMat0=    1 NMatS0=      1 NMatT0=    0 NMatD0=    1 NMtDS0=    0 NMtDT0=    0
 Petite list used in FoFCou.
 Harris En= -601.677051422921    
 JPrj=0 DoOrth=F DoCkMO=F.
 Leave Link  401 at Thu May  3 12:00:11 2018, MaxMem=   268435456 cpu:         8.5
 (Enter /ihome/crc/build/g09/g09-D.01/TAR/g09/l502.exe)
 Closed shell SCF:
 Using DIIS extrapolation, IDIIS=  1040.
 Integral symmetry usage will be decided dynamically.
 IVT=      351733 IEndB=      351733 NGot=   268435456 MDV=   268210256
 LenX=   268210256 LenY=   268100254
 Requested convergence on RMS density matrix=1.00D-08 within 128 cycles.
 Requested convergence on MAX density matrix=1.00D-06.
 Requested convergence on             energy=1.00D-06.
 No special actions if energy rises.
 Fock matrices will be formed incrementally for  20 cycles.

 Cycle   1  Pass 1  IDiag  1:
 FoFJK:  IHMeth= 1 ICntrl=       0 DoSepK=F KAlg= 0 I1Cent=   0 FoldK=F
 IRaf= 880000000 NMat=   1 IRICut=       1 DoRegI=T DoRafI=F ISym2E= 0.
 FoFCou: FMM=F IPFlag=           0 FMFlag=      100000 FMFlg1=           0
         NFxFlg=           0 DoJE=F BraDBF=F KetDBF=F FulRan=T
         wScrn=  0.000000 ICntrl=       0 IOpCl=  0 I1Cent=           0 NGrid=           0
         NMat0=    1 NMatS0=      1 NMatT0=    0 NMatD0=    1 NMtDS0=    0 NMtDT0=    0
 Symmetry not used in FoFCou.
 Inv3:  Mode=1 IEnd=    19830123.
 Iteration    1 A*A^-1 deviation from unit magnitude is 7.77D-15 for   1154.
 Iteration    1 A*A^-1 deviation from orthogonality  is 4.75D-15 for   1785    892.
 Iteration    1 A^-1*A deviation from unit magnitude is 7.77D-15 for   2083.
 Iteration    1 A^-1*A deviation from orthogonality  is 8.27D-14 for   1604   1572.
 E= -601.362010772955    
 DIIS: error= 5.17D-02 at cycle   1 NSaved=   1.
 NSaved= 1 IEnMin= 1 EnMin= -601.362010772955     IErMin= 1 ErrMin= 5.17D-02
 ErrMax= 5.17D-02  0.00D+00 EMaxC= 1.00D-01 BMatC= 4.97D-01 BMatP= 4.97D-01
 IDIUse=3 WtCom= 4.83D-01 WtEn= 5.17D-01
 Coeff-Com:  0.100D+01
 Coeff-En:   0.100D+01
 Coeff:      0.100D+01
 Gap=     0.311 Goal=   None    Shift=    0.000
 GapD=    0.311 DampG=1.000 DampE=0.500 DampFc=0.5000 IDamp=-1.
 Damping current iteration by 5.00D-01
 RMSDP=2.55D-02 MaxDP=1.17D+00              OVMax= 1.47D-01

 Cycle   2  Pass 1  IDiag  1:
 RMSU=  1.27D-02    CP:  9.79D-01
 E= -601.625909661582     Delta-E=       -0.263898888627 Rises=F Damp=T
 DIIS: error= 1.03D-02 at cycle   2 NSaved=   2.
 NSaved= 2 IEnMin= 2 EnMin= -601.625909661582     IErMin= 2 ErrMin= 1.03D-02
 ErrMax= 1.03D-02  0.00D+00 EMaxC= 1.00D-01 BMatC= 2.91D-02 BMatP= 4.97D-01
 IDIUse=3 WtCom= 8.97D-01 WtEn= 1.03D-01
 Coeff-Com: -0.139D+00 0.114D+01
 Coeff-En:   0.000D+00 0.100D+01
 Coeff:     -0.125D+00 0.112D+01
 Gap=     0.317 Goal=   None    Shift=    0.000
 RMSDP=1.40D-02 MaxDP=1.21D+00 DE=-2.64D-01 OVMax= 7.55D-02

 Cycle   3  Pass 1  IDiag  1:
 RMSU=  7.85D-03    CP:  7.69D-01  7.16D-01
 E= -601.856119942796     Delta-E=       -0.230210281214 Rises=F Damp=F
 DIIS: error= 3.12D-03 at cycle   3 NSaved=   3.
 NSaved= 3 IEnMin= 3 EnMin= -601.856119942796     IErMin= 3 ErrMin= 3.12D-03
 ErrMax= 3.12D-03  0.00D+00 EMaxC= 1.00D-01 BMatC= 1.98D-03 BMatP= 2.91D-02
 IDIUse=3 WtCom= 9.69D-01 WtEn= 3.12D-02
 Coeff-Com: -0.409D-01 0.191D+00 0.850D+00
 Coeff-En:   0.000D+00 0.000D+00 0.100D+01
 Coeff:     -0.397D-01 0.185D+00 0.854D+00
 Gap=     0.310 Goal=   None    Shift=    0.000
 RMSDP=2.01D-03 MaxDP=1.47D-01 DE=-2.30D-01 OVMax= 1.46D-02

 Cycle   4  Pass 1  IDiag  1:
 RMSU=  1.86D-03    CP:  7.56D-01  7.10D-01  1.04D+00
 E= -601.857259797740     Delta-E=       -0.001139854944 Rises=F Damp=F
 DIIS: error= 2.20D-03 at cycle   4 NSaved=   4.
 NSaved= 4 IEnMin= 4 EnMin= -601.857259797740     IErMin= 4 ErrMin= 2.20D-03
 ErrMax= 2.20D-03  0.00D+00 EMaxC= 1.00D-01 BMatC= 8.50D-04 BMatP= 1.98D-03
 IDIUse=3 WtCom= 9.78D-01 WtEn= 2.20D-02
 Coeff-Com: -0.102D-01 0.328D-01 0.410D+00 0.567D+00
 Coeff-En:   0.000D+00 0.000D+00 0.278D+00 0.722D+00
 Coeff:     -0.996D-02 0.321D-01 0.408D+00 0.570D+00
 Gap=     0.309 Goal=   None    Shift=    0.000
 RMSDP=7.14D-04 MaxDP=6.43D-02 DE=-1.14D-03 OVMax= 1.01D-02

 Cycle   5  Pass 1  IDiag  1:
 RMSU=  4.60D-04    CP:  7.63D-01  7.05D-01  1.05D+00  7.91D-01
 E= -601.858081491622     Delta-E=       -0.000821693882 Rises=F Damp=F
 DIIS: error= 4.90D-04 at cycle   5 NSaved=   5.
 NSaved= 5 IEnMin= 5 EnMin= -601.858081491622     IErMin= 5 ErrMin= 4.90D-04
 ErrMax= 4.90D-04  0.00D+00 EMaxC= 1.00D-01 BMatC= 3.81D-05 BMatP= 8.50D-04
 IDIUse=3 WtCom= 9.95D-01 WtEn= 4.90D-03
 Coeff-Com: -0.197D-02 0.512D-02 0.144D+00 0.259D+00 0.594D+00
 Coeff-En:   0.000D+00 0.000D+00 0.000D+00 0.000D+00 0.100D+01
 Coeff:     -0.196D-02 0.510D-02 0.143D+00 0.258D+00 0.596D+00
 Gap=     0.308 Goal=   None    Shift=    0.000
 RMSDP=1.80D-04 MaxDP=8.43D-03 DE=-8.22D-04 OVMax= 2.56D-03

 Cycle   6  Pass 1  IDiag  1:
 RMSU=  1.27D-04    CP:  7.62D-01  7.02D-01  1.06D+00  8.40D-01  1.07D+00
 E= -601.858115013067     Delta-E=       -0.000033521445 Rises=F Damp=F
 DIIS: error= 1.15D-04 at cycle   6 NSaved=   6.
 NSaved= 6 IEnMin= 6 EnMin= -601.858115013067     IErMin= 6 ErrMin= 1.15D-04
 ErrMax= 1.15D-04  0.00D+00 EMaxC= 1.00D-01 BMatC= 3.82D-06 BMatP= 3.81D-05
 IDIUse=3 WtCom= 9.99D-01 WtEn= 1.15D-03
 Coeff-Com:  0.761D-03-0.251D-02 0.653D-02 0.379D-01 0.265D+00 0.693D+00
 Coeff-En:   0.000D+00 0.000D+00 0.000D+00 0.000D+00 0.000D+00 0.100D+01
 Coeff:      0.760D-03-0.250D-02 0.652D-02 0.378D-01 0.264D+00 0.693D+00
 Gap=     0.309 Goal=   None    Shift=    0.000
 RMSDP=8.01D-05 MaxDP=4.11D-03 DE=-3.35D-05 OVMax= 6.48D-04

 Cycle   7  Pass 1  IDiag  1:
 RMSU=  4.83D-05    CP:  7.62D-01  6.99D-01  1.06D+00  8.53D-01  1.12D+00
                    CP:  8.24D-01
 E= -601.858118737481     Delta-E=       -0.000003724414 Rises=F Damp=F
 DIIS: error= 1.72D-05 at cycle   7 NSaved=   7.
 NSaved= 7 IEnMin= 7 EnMin= -601.858118737481     IErMin= 7 ErrMin= 1.72D-05
 ErrMax= 1.72D-05  0.00D+00 EMaxC= 1.00D-01 BMatC= 1.28D-07 BMatP= 3.82D-06
 IDIUse=1 WtCom= 1.00D+00 WtEn= 0.00D+00
 Coeff-Com:  0.376D-03-0.108D-02-0.978D-02-0.104D-01 0.210D-01 0.175D+00
 Coeff-Com:  0.825D+00
 Coeff:      0.376D-03-0.108D-02-0.978D-02-0.104D-01 0.210D-01 0.175D+00
 Coeff:      0.825D+00
 Gap=     0.308 Goal=   None    Shift=    0.000
 RMSDP=2.79D-05 MaxDP=1.67D-03 DE=-3.72D-06 OVMax= 9.20D-05

 Cycle   8  Pass 1  IDiag  1:
 RMSU=  1.33D-05    CP:  7.62D-01  6.98D-01  1.06D+00  8.60D-01  1.14D+00
                    CP:  8.55D-01  1.08D+00
 E= -601.858118865094     Delta-E=       -0.000000127613 Rises=F Damp=F
 DIIS: error= 7.78D-06 at cycle   8 NSaved=   8.
 NSaved= 8 IEnMin= 8 EnMin= -601.858118865094     IErMin= 8 ErrMin= 7.78D-06
 ErrMax= 7.78D-06  0.00D+00 EMaxC= 1.00D-01 BMatC= 1.92D-08 BMatP= 1.28D-07
 IDIUse=1 WtCom= 1.00D+00 WtEn= 0.00D+00
 Coeff-Com:  0.910D-04-0.263D-03-0.459D-02-0.727D-02-0.127D-01 0.186D-01
 Coeff-Com:  0.327D+00 0.679D+00
 Coeff:      0.910D-04-0.263D-03-0.459D-02-0.727D-02-0.127D-01 0.186D-01
 Coeff:      0.327D+00 0.679D+00
 Gap=     0.308 Goal=   None    Shift=    0.000
 RMSDP=4.62D-06 MaxDP=3.66D-04 DE=-1.28D-07 OVMax= 3.90D-05

 Cycle   9  Pass 1  IDiag  1:
 RMSU=  2.63D-06    CP:  7.62D-01  6.98D-01  1.06D+00  8.60D-01  1.15D+00
                    CP:  8.75D-01  1.09D+00  9.75D-01
 E= -601.858118885428     Delta-E=       -0.000000020333 Rises=F Damp=F
 DIIS: error= 2.26D-06 at cycle   9 NSaved=   9.
 NSaved= 9 IEnMin= 9 EnMin= -601.858118885428     IErMin= 9 ErrMin= 2.26D-06
 ErrMax= 2.26D-06  0.00D+00 EMaxC= 1.00D-01 BMatC= 1.14D-09 BMatP= 1.92D-08
 IDIUse=1 WtCom= 1.00D+00 WtEn= 0.00D+00
 Coeff-Com: -0.473D-05 0.394D-05-0.740D-03-0.161D-02-0.587D-02-0.593D-02
 Coeff-Com:  0.391D-01 0.220D+00 0.755D+00
 Coeff:     -0.473D-05 0.394D-05-0.740D-03-0.161D-02-0.587D-02-0.593D-02
 Coeff:      0.391D-01 0.220D+00 0.755D+00
 Gap=     0.308 Goal=   None    Shift=    0.000
 RMSDP=1.44D-06 MaxDP=9.96D-05 DE=-2.03D-08 OVMax= 1.37D-05

 Cycle  10  Pass 1  IDiag  1:
 RMSU=  1.06D-06    CP:  7.62D-01  6.98D-01  1.06D+00  8.60D-01  1.15D+00
                    CP:  8.76D-01  1.10D+00  9.86D-01  1.21D+00
 E= -601.858118886564     Delta-E=       -0.000000001136 Rises=F Damp=F
 DIIS: error= 6.38D-07 at cycle  10 NSaved=  10.
 NSaved=10 IEnMin=10 EnMin= -601.858118886564     IErMin=10 ErrMin= 6.38D-07
 ErrMax= 6.38D-07  0.00D+00 EMaxC= 1.00D-01 BMatC= 1.48D-10 BMatP= 1.14D-09
 IDIUse=1 WtCom= 1.00D+00 WtEn= 0.00D+00
 Coeff-Com: -0.117D-04 0.294D-04 0.134D-03 0.444D-04-0.116D-02-0.312D-02
 Coeff-Com: -0.146D-01 0.298D-01 0.301D+00 0.688D+00
 Coeff:     -0.117D-04 0.294D-04 0.134D-03 0.444D-04-0.116D-02-0.312D-02
 Coeff:     -0.146D-01 0.298D-01 0.301D+00 0.688D+00
 Gap=     0.308 Goal=   None    Shift=    0.000
 RMSDP=3.62D-07 MaxDP=3.06D-05 DE=-1.14D-09 OVMax= 5.99D-06

 Cycle  11  Pass 1  IDiag  1:
 RMSU=  1.84D-07    CP:  7.62D-01  6.98D-01  1.06D+00  8.60D-01  1.15D+00
                    CP:  8.77D-01  1.10D+00  1.00D+00  1.25D+00  8.63D-01
 E= -601.858118886714     Delta-E=       -0.000000000150 Rises=F Damp=F
 DIIS: error= 1.79D-07 at cycle  11 NSaved=  11.
 NSaved=11 IEnMin=11 EnMin= -601.858118886714     IErMin=11 ErrMin= 1.79D-07
 ErrMax= 1.79D-07  0.00D+00 EMaxC= 1.00D-01 BMatC= 1.20D-11 BMatP= 1.48D-10
 IDIUse=1 WtCom= 1.00D+00 WtEn= 0.00D+00
 Coeff-Com: -0.254D-05 0.742D-05 0.124D-03 0.195D-03 0.261D-03-0.810D-04
 Coeff-Com: -0.989D-02-0.168D-01-0.377D-02 0.196D+00 0.834D+00
 Coeff:     -0.254D-05 0.742D-05 0.124D-03 0.195D-03 0.261D-03-0.810D-04
 Coeff:     -0.989D-02-0.168D-01-0.377D-02 0.196D+00 0.834D+00
 Gap=     0.308 Goal=   None    Shift=    0.000
 RMSDP=1.27D-07 MaxDP=6.03D-06 DE=-1.50D-10 OVMax= 1.51D-06

 Cycle  12  Pass 1  IDiag  1:
 RMSU=  6.56D-08    CP:  7.62D-01  6.98D-01  1.06D+00  8.60D-01  1.15D+00
                    CP:  8.77D-01  1.10D+00  1.00D+00  1.26D+00  8.77D-01
                    CP:  1.21D+00
 E= -601.858118886761     Delta-E=       -0.000000000047 Rises=F Damp=F
 DIIS: error= 9.48D-08 at cycle  12 NSaved=  12.
 NSaved=12 IEnMin=12 EnMin= -601.858118886761     IErMin=12 ErrMin= 9.48D-08
 ErrMax= 9.48D-08  0.00D+00 EMaxC= 1.00D-01 BMatC= 5.34D-13 BMatP= 1.20D-11
 IDIUse=1 WtCom= 1.00D+00 WtEn= 0.00D+00
 Coeff-Com:  0.756D-06-0.154D-05 0.294D-05 0.139D-04 0.723D-04 0.306D-03
 Coeff-Com: -0.124D-03-0.316D-02-0.185D-01-0.146D-01 0.974D-01 0.939D+00
 Coeff:      0.756D-06-0.154D-05 0.294D-05 0.139D-04 0.723D-04 0.306D-03
 Coeff:     -0.124D-03-0.316D-02-0.185D-01-0.146D-01 0.974D-01 0.939D+00
 Gap=     0.308 Goal=   None    Shift=    0.000
 RMSDP=4.64D-08 MaxDP=3.78D-06 DE=-4.68D-11 OVMax= 1.04D-06

 Cycle  13  Pass 1  IDiag  1:
 RMSU=  1.67D-08    CP:  7.62D-01  6.98D-01  1.06D+00  8.60D-01  1.15D+00
                    CP:  8.77D-01  1.10D+00  1.00D+00  1.25D+00  8.66D-01
                    CP:  1.33D+00  1.22D+00
 E= -601.858118886785     Delta-E=       -0.000000000024 Rises=F Damp=F
 DIIS: error= 3.00D-08 at cycle  13 NSaved=  13.
 NSaved=13 IEnMin=13 EnMin= -601.858118886785     IErMin=13 ErrMin= 3.00D-08
 ErrMax= 3.00D-08  0.00D+00 EMaxC= 1.00D-01 BMatC= 3.07D-13 BMatP= 5.34D-13
 IDIUse=1 WtCom= 1.00D+00 WtEn= 0.00D+00
 Coeff-Com:  0.791D-06-0.191D-05-0.133D-04-0.155D-04 0.116D-04 0.179D-03
 Coeff-Com:  0.114D-02-0.429D-04-0.115D-01-0.378D-01-0.754D-01 0.476D+00
 Coeff-Com:  0.648D+00
 Coeff:      0.791D-06-0.191D-05-0.133D-04-0.155D-04 0.116D-04 0.179D-03
 Coeff:      0.114D-02-0.429D-04-0.115D-01-0.378D-01-0.754D-01 0.476D+00
 Coeff:      0.648D+00
 Gap=     0.308 Goal=   None    Shift=    0.000
 RMSDP=1.62D-08 MaxDP=1.32D-06 DE=-2.43D-11 OVMax= 1.68D-07

 Cycle  14  Pass 1  IDiag  1:
 RMSU=  6.38D-09    CP:  7.62D-01  6.98D-01  1.06D+00  8.60D-01  1.15D+00
                    CP:  8.77D-01  1.10D+00  1.00D+00  1.25D+00  8.64D-01
                    CP:  1.37D+00  1.33D+00  1.06D+00
 E= -601.858118886782     Delta-E=        0.000000000003 Rises=F Damp=F
 DIIS: error= 3.93D-09 at cycle  14 NSaved=  14.
 NSaved=14 IEnMin=13 EnMin= -601.858118886785     IErMin=14 ErrMin= 3.93D-09
 ErrMax= 3.93D-09  0.00D+00 EMaxC= 1.00D-01 BMatC= 2.29D-15 BMatP= 3.07D-13
 IDIUse=1 WtCom= 1.00D+00 WtEn= 0.00D+00
 Coeff-Com: -0.781D-07 0.147D-06 0.592D-06 0.194D-06-0.554D-05-0.224D-04
 Coeff-Com: -0.382D-04 0.185D-03 0.206D-02 0.356D-02-0.399D-02-0.687D-01
 Coeff-Com: -0.934D-01 0.116D+01
 Coeff:     -0.781D-07 0.147D-06 0.592D-06 0.194D-06-0.554D-05-0.224D-04
 Coeff:     -0.382D-04 0.185D-03 0.206D-02 0.356D-02-0.399D-02-0.687D-01
 Coeff:     -0.934D-01 0.116D+01
 Gap=     0.308 Goal=   None    Shift=    0.000
 RMSDP=4.69D-09 MaxDP=4.78D-07 DE= 3.18D-12 OVMax= 5.09D-08

 Error on total polarization charges =  0.05646
 SCF Done:  E(RM062X) =  -601.858118887     A.U. after   14 cycles
            NFock= 14  Conv=0.47D-08     -V/T= 2.0093
 KE= 5.963081866009D+02 PE=-3.471926097162D+03 EE= 1.233872691909D+03
 SMD-CDS (non-electrostatic) energy       (kcal/mol) =      -5.26
 (included in total energy above)
 Leave Link  502 at Thu May  3 12:02:53 2018, MaxMem=   268435456 cpu:       648.9
 (Enter /ihome/crc/build/g09/g09-D.01/TAR/g09/l601.exe)
 Copying SCF densities to generalized density rwf, IOpCl= 0 IROHF=0.

 **********************************************************************

            Population analysis using the SCF density.

 **********************************************************************

 Orbital symmetries:
       Occupied  (A) (A) (A) (A) (A) (A) (A) (A) (A) (A) (A) (A)
                 (A) (A) (A) (A) (A) (A) (A) (A) (A) (A) (A) (A)
                 (A) (A) (A) (A) (A) (A) (A) (A) (A) (A) (A) (A)
                 (A) (A) (A) (A) (A) (A) (A) (A) (A) (A) (A) (A)
                 (A) (A) (A) (A) (A) (A) (A) (A) (A)
       Virtual   (A) (A) (A) (A) (A) (A) (A) (A) (A) (A) (A) (A)
                 (A) (A) (A) (A) (A) (A) (A) (A) (A) (A) (A) (A)
                 (A) (A) (A) (A) (A) (A) (A) (A) (A) (A) (A) (A)
                 (A) (A) (A) (A) (A) (A) (A) (A) (A) (A) (A) (A)
                 (A) (A) (A) (A) (A) (A) (A) (A) (A) (A) (A) (A)
                 (A) (A) (A) (A) (A) (A) (A) (A) (A) (A) (A) (A)
                 (A) (A) (A) (A) (A) (A) (A) (A) (A) (A) (A) (A)
                 (A) (A) (A) (A) (A) (A) (A) (A) (A) (A) (A) (A)
                 (A) (A) (A) (A) (A) (A) (A) (A) (A) (A) (A) (A)
                 (A) (A) (A) (A) (A) (A) (A) (A) (A) (A) (A) (A)
                 (A) (A) (A) (A) (A) (A) (A) (A) (A) (A) (A) (A)
                 (A) (A) (A) (A) (A) (A) (A) (A) (A) (A) (A) (A)
                 (A) (A) (A) (A) (A) (A) (A) (A) (A) (A) (A) (A)
                 (A) (A) (A) (A) (A) (A) (A) (A) (A) (A) (A) (A)
                 (A) (A) (A) (A) (A) (A) (A) (A) (A) (A) (A) (A)
                 (A) (A) (A) (A) (A) (A) (A) (A) (A) (A) (A) (A)
                 (A) (A) (A) (A) (A) (A) (A) (A) (A) (A) (A) (A)
                 (A) (A) (A) (A) (A) (A) (A) (A) (A) (A) (A) (A)
                 (A) (A) (A) (A) (A) (A) (A) (A) (A) (A) (A) (A)
                 (A) (A) (A) (A) (A) (A) (A) (A) (A) (A) (A) (A)
                 (A) (A) (A) (A) (A) (A) (A) (A) (A) (A) (A) (A)
                 (A) (A) (A) (A) (A) (A) (A) (A) (A) (A) (A) (A)
                 (A) (A) (A) (A) (A) (A) (A) (A) (A) (A)
 The electronic state is 1-A.
 Alpha  occ. eigenvalues --  -14.75190 -10.58609 -10.58607 -10.57054 -10.55848
 Alpha  occ. eigenvalues --  -10.55848 -10.54639 -10.54636 -10.54000 -10.52967
 Alpha  occ. eigenvalues --  -10.52967 -10.52953 -10.52952 -10.52231 -10.52230
 Alpha  occ. eigenvalues --   -1.04317  -0.92824  -0.91582  -0.89855  -0.82940
 Alpha  occ. eigenvalues --   -0.79830  -0.77100  -0.77084  -0.76616  -0.76151
 Alpha  occ. eigenvalues --   -0.71193  -0.69121  -0.62015  -0.60415  -0.56574
 Alpha  occ. eigenvalues --   -0.55946  -0.52612  -0.51863  -0.51013  -0.49612
 Alpha  occ. eigenvalues --   -0.49071  -0.48936  -0.48702  -0.45892  -0.45755
 Alpha  occ. eigenvalues --   -0.45628  -0.45024  -0.43686  -0.43438  -0.42807
 Alpha  occ. eigenvalues --   -0.42674  -0.41692  -0.41691  -0.40224  -0.38605
 Alpha  occ. eigenvalues --   -0.37932  -0.37832  -0.37733  -0.36463  -0.32104
 Alpha  occ. eigenvalues --   -0.31012  -0.29404
 Alpha virt. eigenvalues --    0.01444   0.01851   0.01962   0.02979   0.03007
 Alpha virt. eigenvalues --    0.03994   0.04441   0.04459   0.04838   0.05037
 Alpha virt. eigenvalues --    0.06149   0.06511   0.06706   0.06955   0.07138
 Alpha virt. eigenvalues --    0.07877   0.08410   0.08760   0.09059   0.09212
 Alpha virt. eigenvalues --    0.09423   0.10490   0.11217   0.11646   0.12171
 Alpha virt. eigenvalues --    0.12505   0.13324   0.13493   0.13640   0.14067
 Alpha virt. eigenvalues --    0.14934   0.15160   0.15857   0.16179   0.16781
 Alpha virt. eigenvalues --    0.17187   0.17988   0.19157   0.19323   0.19512
 Alpha virt. eigenvalues --    0.19639   0.20354   0.20520   0.21214   0.21322
 Alpha virt. eigenvalues --    0.21669   0.22033   0.22638   0.22721   0.22974
 Alpha virt. eigenvalues --    0.23226   0.23487   0.24694   0.25377   0.25446
 Alpha virt. eigenvalues --    0.25661   0.26641   0.27171   0.27190   0.28171
 Alpha virt. eigenvalues --    0.28992   0.29416   0.29916   0.30064   0.30493
 Alpha virt. eigenvalues --    0.30746   0.31085   0.31451   0.31563   0.32494
 Alpha virt. eigenvalues --    0.32626   0.32881   0.33217   0.33369   0.34436
 Alpha virt. eigenvalues --    0.34749   0.34819   0.35458   0.35991   0.36019
 Alpha virt. eigenvalues --    0.36486   0.37275   0.37583   0.38382   0.38896
 Alpha virt. eigenvalues --    0.39718   0.40508   0.41436   0.42049   0.42569
 Alpha virt. eigenvalues --    0.43300   0.44064   0.45607   0.46196   0.48649
 Alpha virt. eigenvalues --    0.50248   0.52727   0.56357   0.57081   0.64197
 Alpha virt. eigenvalues --    0.64659   0.67370   0.71404   0.73611   0.73641
 Alpha virt. eigenvalues --    0.74339   0.75193   0.75319   0.76648   0.76873
 Alpha virt. eigenvalues --    0.78017   0.78339   0.79294   0.80214   0.80873
 Alpha virt. eigenvalues --    0.81139   0.82991   0.83450   0.83824   0.84427
 Alpha virt. eigenvalues --    0.84599   0.85295   0.85936   0.87052   0.88207
 Alpha virt. eigenvalues --    0.88706   0.89242   0.89660   0.90459   0.92652
 Alpha virt. eigenvalues --    0.95203   0.95560   0.95851   0.96922   0.97139
 Alpha virt. eigenvalues --    0.98213   1.01134   1.02183   1.03467   1.05871
 Alpha virt. eigenvalues --    1.06211   1.06858   1.07014   1.07844   1.08035
 Alpha virt. eigenvalues --    1.08082   1.09220   1.10064   1.11882   1.13799
 Alpha virt. eigenvalues --    1.14108   1.14225   1.14350   1.15529   1.16064
 Alpha virt. eigenvalues --    1.19278   1.19672   1.20549   1.21138   1.23076
 Alpha virt. eigenvalues --    1.24147   1.25635   1.26398   1.26634   1.27192
 Alpha virt. eigenvalues --    1.27355   1.27915   1.30529   1.30764   1.31834
 Alpha virt. eigenvalues --    1.32889   1.36218   1.37407   1.42610   1.42798
 Alpha virt. eigenvalues --    1.45518   1.45860   1.50145   1.52400   1.53298
 Alpha virt. eigenvalues --    1.54722   1.57350   1.58539   1.58756   1.61354
 Alpha virt. eigenvalues --    1.65518   1.68189   1.71406   1.73078   1.76385
 Alpha virt. eigenvalues --    1.78247   1.78884   1.79211   1.81081   1.85201
 Alpha virt. eigenvalues --    1.90402   1.91313   1.91522   1.93351   1.94261
 Alpha virt. eigenvalues --    1.95076   1.95541   1.96268   1.98379   1.99654
 Alpha virt. eigenvalues --    2.00138   2.01472   2.01948   2.05008   2.08488
 Alpha virt. eigenvalues --    2.10987   2.15812   2.16012   2.17807   2.21071
 Alpha virt. eigenvalues --    2.21298   2.23557   2.24449   2.27000   2.27782
 Alpha virt. eigenvalues --    2.29096   2.29520   2.31546   2.32644   2.33561
 Alpha virt. eigenvalues --    2.33749   2.34255   2.35515   2.35778   2.37146
 Alpha virt. eigenvalues --    2.37519   2.37912   2.39285   2.39344   2.42443
 Alpha virt. eigenvalues --    2.44199   2.44579   2.46983   2.51827   2.54774
 Alpha virt. eigenvalues --    2.56287   2.59500   2.61188   2.62502   2.66365
 Alpha virt. eigenvalues --    2.70260   2.74416   2.76894   2.78845   2.79557
 Alpha virt. eigenvalues --    2.81410   2.85402   2.89159   2.95138   2.96601
 Alpha virt. eigenvalues --    2.97076   3.04578   3.23409   3.45293   4.28845
 Alpha virt. eigenvalues --    4.30678   4.32436   4.37415   4.39737   4.40435
 Alpha virt. eigenvalues --    4.41508   4.42521   4.47077   4.49694   4.53126
 Alpha virt. eigenvalues --    4.59400   4.69673   4.77694   4.85050
          Condensed to atoms (all electrons):
               1          2          3          4          5          6
     1  C   14.818852  -4.950562   0.253143   0.215914  -2.239240  -2.484271
     2  C   -4.950562  12.649994  -0.124070   0.348852   0.173104   1.362763
     3  N    0.253143  -0.124070   7.311122  -0.125815   0.260977  -0.072949
     4  C    0.215914   0.348852  -0.125815  12.628949  -4.958245   1.348224
     5  C   -2.239240   0.173104   0.260977  -4.958245  14.840687  -2.499112
     6  C   -2.484271   1.362763  -0.072949   1.348224  -2.499112   8.900501
     7  H    0.209488   0.180501  -0.001436   0.065329  -0.007641   0.006360
     8  C    0.843806  -2.691869  -0.273635  -0.404369   0.018916  -0.099018
     9  C    0.015165  -0.399566  -0.273826  -2.681407   0.820714  -0.081169
    10  H   -0.002670   0.064741  -0.001469   0.181004   0.202045   0.008857
    11  C   -0.160225  -0.106760   0.046434  -0.114492  -0.155405  -0.408661
    12  H    0.014043  -0.012449  -0.000127   0.007868   0.063328  -0.155232
    13  H   -0.042975   0.001777   0.000220   0.002253  -0.046184   0.035167
    14  H    0.065145   0.008475  -0.000134  -0.012369   0.013366  -0.158562
    15  C   -0.055185  -0.226471   0.044892   0.046852  -0.009461   0.027596
    16  C   -0.006521  -0.283576   0.052419   0.070695  -0.073608   0.007756
    17  C   -0.036722   0.521508  -0.010854   0.079875  -0.116336  -0.049606
    18  C   -0.078400   0.071497   0.052550  -0.319393   0.014667   0.004580
    19  C   -0.011057   0.047841   0.044715  -0.191013  -0.068211   0.028475
    20  C   -0.111270   0.077745  -0.010267   0.520734  -0.038057  -0.049928
    21  H   -0.019158   0.049120  -0.003356   0.006862  -0.007385  -0.002461
    22  H    0.022446  -0.070517   0.000673  -0.004186   0.001911  -0.004124
    23  H   -0.037873   0.028700   0.008453   0.011008  -0.006232   0.009363
    24  H   -0.012529   0.013293   0.001114   0.020178  -0.008055   0.000022
    25  H    0.005519  -0.049075   0.001297  -0.006622   0.004515  -0.001089
    26  H   -0.013490   0.009142   0.000567   0.018229  -0.006063  -0.000786
    27  H   -0.018519   0.048803  -0.003362   0.005883  -0.008243  -0.000601
    28  H   -0.036526   0.027440   0.008581   0.011492  -0.004575   0.006501
    29  H    0.018359  -0.066546   0.000439  -0.004273   0.003306  -0.000899
    30  H   -0.006163   0.018598   0.000565   0.009965  -0.013979  -0.000756
    31  H    0.004497  -0.006594   0.001305  -0.049072   0.005406  -0.001053
    32  H   -0.007865   0.019787   0.001115   0.012675  -0.011945  -0.000067
    33  H   -0.008260   0.005909  -0.003453   0.048560  -0.017371  -0.001009
    34  H    0.003343  -0.004333   0.000431  -0.067335   0.018057  -0.000668
    35  H   -0.004789   0.011792   0.008853   0.027883  -0.036525   0.006415
    36  H   -0.007328   0.006810  -0.003268   0.049119  -0.020079  -0.002005
    37  H   -0.006169   0.010813   0.008161   0.028147  -0.037354   0.009170
    38  H    0.001891  -0.004112   0.000679  -0.069502   0.022565  -0.004349
               7          8          9         10         11         12
     1  C    0.209488   0.843806   0.015165  -0.002670  -0.160225   0.014043
     2  C    0.180501  -2.691869  -0.399566   0.064741  -0.106760  -0.012449
     3  N   -0.001436  -0.273635  -0.273826  -0.001469   0.046434  -0.000127
     4  C    0.065329  -0.404369  -2.681407   0.181004  -0.114492   0.007868
     5  C   -0.007641   0.018916   0.820714   0.202045  -0.155405   0.063328
     6  C    0.006360  -0.099018  -0.081169   0.008857  -0.408661  -0.155232
     7  H    0.466257  -0.103294   0.011334  -0.000105  -0.030946   0.000055
     8  C   -0.103294  10.015314  -0.487427   0.011404  -0.077248   0.001068
     9  C    0.011334  -0.487427  10.010553  -0.103527  -0.077239   0.000729
    10  H   -0.000105   0.011404  -0.103527   0.466193  -0.030537   0.001875
    11  C   -0.030946  -0.077248  -0.077239  -0.030537   6.292287   0.424593
    12  H    0.000055   0.001068   0.000729   0.001875   0.424593   0.470664
    13  H    0.000240  -0.001508  -0.001679   0.000254   0.390081  -0.023151
    14  H    0.001993   0.000603   0.001100   0.000055   0.426411  -0.025410
    15  C   -0.020620   0.206529  -0.047759  -0.000112   0.006170   0.000082
    16  C   -0.022238   0.238675  -0.052689   0.000007   0.022438  -0.000113
    17  C    0.005639  -0.647194   0.141644  -0.000279  -0.010448  -0.000023
    18  C    0.000026  -0.056042   0.267237  -0.022626   0.021798   0.000892
    19  C   -0.000127  -0.044240   0.176698  -0.020236   0.005785  -0.001255
    20  C   -0.000285   0.140954  -0.647665   0.005585  -0.010152  -0.000010
    21  H   -0.000617  -0.054419   0.000651   0.000000  -0.000064   0.000000
    22  H    0.000012   0.039344  -0.000269   0.000000  -0.000196   0.000000
    23  H   -0.000009  -0.069058  -0.002368   0.000000   0.001264   0.000000
    24  H   -0.000004  -0.069610   0.006734   0.000000   0.000034   0.000000
    25  H   -0.000002   0.036756  -0.001301   0.000000  -0.000106   0.000000
    26  H   -0.000003  -0.060409   0.006009   0.000000  -0.000088   0.000000
    27  H   -0.000584  -0.052802   0.000532   0.000000   0.000795   0.000000
    28  H    0.000011  -0.071013  -0.002357   0.000000   0.000888   0.000000
    29  H    0.000010   0.037215  -0.000254   0.000000  -0.000203   0.000000
    30  H    0.000000   0.006370  -0.061773  -0.000003  -0.000086   0.000000
    31  H    0.000000  -0.001306   0.036988  -0.000002  -0.000106   0.000000
    32  H    0.000000   0.006359  -0.068661  -0.000004   0.000033   0.000000
    33  H    0.000000   0.000528  -0.051415  -0.000608   0.000863   0.000001
    34  H    0.000000  -0.000283   0.037960   0.000010  -0.000205   0.000000
    35  H    0.000000  -0.002339  -0.072839   0.000016   0.000864   0.000000
    36  H    0.000000   0.000656  -0.055750  -0.000592  -0.000113   0.000000
    37  H    0.000000  -0.002351  -0.067292  -0.000016   0.001266   0.000000
    38  H    0.000000  -0.000241   0.038365   0.000012  -0.000196   0.000000
              13         14         15         16         17         18
     1  C   -0.042975   0.065145  -0.055185  -0.006521  -0.036722  -0.078400
     2  C    0.001777   0.008475  -0.226471  -0.283576   0.521508   0.071497
     3  N    0.000220  -0.000134   0.044892   0.052419  -0.010854   0.052550
     4  C    0.002253  -0.012369   0.046852   0.070695   0.079875  -0.319393
     5  C   -0.046184   0.013366  -0.009461  -0.073608  -0.116336   0.014667
     6  C    0.035167  -0.158562   0.027596   0.007756  -0.049606   0.004580
     7  H    0.000240   0.001993  -0.020620  -0.022238   0.005639   0.000026
     8  C   -0.001508   0.000603   0.206529   0.238675  -0.647194  -0.056042
     9  C   -0.001679   0.001100  -0.047759  -0.052689   0.141644   0.267237
    10  H    0.000254   0.000055  -0.000112   0.000007  -0.000279  -0.022626
    11  C    0.390081   0.426411   0.006170   0.022438  -0.010448   0.021798
    12  H   -0.023151  -0.025410   0.000082  -0.000113  -0.000023   0.000892
    13  H    0.449893  -0.023031   0.000360  -0.000110  -0.000056  -0.000144
    14  H   -0.023031   0.470845  -0.001184   0.000887  -0.000013  -0.000108
    15  C    0.000360  -0.001184   6.033496  -0.255140  -0.448062  -0.000765
    16  C   -0.000110   0.000887  -0.255140   6.052108  -0.450531  -0.006492
    17  C   -0.000056  -0.000013  -0.448062  -0.450531   6.422545   0.008657
    18  C   -0.000144  -0.000108  -0.000765  -0.006492   0.008657   6.051236
    19  C    0.000411   0.000069  -0.003351  -0.000410   0.006016  -0.255684
    20  C   -0.000056  -0.000025   0.007014   0.007770  -0.027825  -0.455919
    21  H    0.000000   0.000000   0.366252  -0.040784   0.039750   0.000018
    22  H    0.000000   0.000000   0.425055  -0.022761  -0.049319  -0.000004
    23  H    0.000000   0.000000   0.409723   0.025949  -0.040070  -0.000103
    24  H    0.000000   0.000000  -0.044317   0.027914   0.408465  -0.000351
    25  H    0.000000   0.000000  -0.023087  -0.024320   0.392215  -0.000003
    26  H    0.000000   0.000000   0.027830  -0.044534   0.405825   0.000525
    27  H    0.000000   0.000001  -0.041305   0.364620   0.039081  -0.000024
    28  H    0.000000   0.000000   0.025636   0.411120  -0.038521  -0.000082
    29  H    0.000000   0.000000  -0.022207   0.424579  -0.051329   0.000010
    30  H    0.000000   0.000000  -0.000361   0.000494   0.000084  -0.044562
    31  H    0.000000   0.000000   0.000001  -0.000001   0.000131  -0.024315
    32  H    0.000000   0.000000   0.000468  -0.000352  -0.000424   0.027778
    33  H    0.000000   0.000000   0.000021  -0.000024  -0.000075   0.363067
    34  H    0.000000   0.000000  -0.000002   0.000009   0.000062   0.425555
    35  H    0.000000   0.000000  -0.000102  -0.000069   0.000491   0.411476
    36  H    0.000000   0.000000  -0.000024   0.000017  -0.000069  -0.040452
    37  H    0.000000   0.000000  -0.000032  -0.000095   0.000431   0.025608
    38  H    0.000000   0.000000   0.000008  -0.000003   0.000029  -0.022370
              19         20         21         22         23         24
     1  C   -0.011057  -0.111270  -0.019158   0.022446  -0.037873  -0.012529
[...]
 0298,-0.00000177,0.00000347,0.00000418,0.00000195,0.00000004,-0.000004
 40,-0.00000079,0.00000470,0.00000010,-0.00000155,-0.00000554,0.0000012
 9,-0.00000340,-0.00011107,0.00005325,0.00008176,-0.00025123,-0.0001648
 1,-0.00069561,0.00005129,-0.00008742,0.00018641,0.00374260,-0.02900306
 ,0.00051291,0.04994834,0.00045372,-0.00008586,0.00010832,-0.00011304,-
 0.00041332,-0.00021992,-0.00015660,-0.00030789,0.00035437,0.00063367,0
 .00114664,0.00258941,0.00010001,-0.00049615,0.00014024,-0.00017266,0.0
 0052411,0.00000113,0.00000339,-0.00002931,0.00000126,-0.00007422,-0.00
 004475,-0.00007095,0.00063362,-0.01116517,-0.00108101,0.00011103,0.000
 03061,-0.00011040,0.00000918,-0.00002823,-0.00000598,-0.00002037,-0.00
 001215,0.00000128,-0.00001097,-0.00001346,-0.00000529,-0.00002113,-0.0
 0003921,0.00000278,0.00005581,0.00000193,-0.00002489,0.00006352,-0.000
 00809,0.00005546,0.00002269,-0.00003863,0.00000918,0.02018470,-0.31450
 545,0.00016562,-0.00010214,0.00036941,-0.00081663,-0.00062548,0.000400
 77,-0.00103970,-0.00000312,0.00001163,-0.00000037,0.00001915,-0.000019
 73,0.00002484,-0.00000849,0.00000366,-0.00000068,0.00000058,0.00000017
 ,-0.00000709,0.00002949,-0.00000633,0.00000755,-0.00000732,0.00000052,
 0.00000300,-0.00000461,0.00001493,0.00000077,-0.00001172,0.00000420,0.
 00000056,0.00003480,-0.00002191,-0.00001540,0.00001474,-0.00004245,0.0
 0014866,0.00032009,0.00042450,0.00003271,-0.00005621,0.00036409,0.0000
 9812,0.00139635,-0.01083031,-0.00014315,-0.02238363,0.34115952,-0.0004
 0835,0.00025054,-0.00012821,-0.00001688,0.00041337,0.00054734,-0.00051
 145,0.00145367,-0.00039410,-0.00159621,-0.00104241,-0.00511223,0.00000
 897,0.00086073,0.00041052,0.00017047,-0.00047821,0.00016668,0.00003364
 ,0.00002415,-0.00005779,0.00007470,0.00004389,0.00004974,-0.00229766,0
 .03024187,-0.00191591,0.00011232,-0.00005548,-0.00002362,-0.00000679,0
 .00002025,-0.00001662,0.00001734,0.00001303,0.00000076,0.00001673,0.00
 002473,0.00000861,0.00001876,0.00002527,-0.00000086,-0.00003629,0.0000
 0464,0.00002244,-0.00004102,0.00001885,-0.00005172,-0.00001617,0.00003
 417,-0.00001860,0.00054095,-0.00136096,-0.04741687,-0.00036121,0.00084
 078,0.00172098,0.00090426,0.00096919,0.00102840,0.00000124,-0.00001158
 ,-0.00000013,-0.00001363,0.00001138,-0.00001717,0.00000561,-0.00000272
 ,0.00000193,-0.00000324,0.00000215,0.00001074,-0.00002311,0.00000302,-
 0.00000106,-0.00000088,-0.00000407,-0.00000349,0.00000180,-0.00001153,
 -0.00000373,-0.00000245,-0.00000524,0.00000932,-0.00002795,0.00001108,
 0.00001918,-0.00009390,-0.00013455,-0.00000644,-0.00036631,-0.00044916
 ,-0.00031362,0.00033723,-0.00008704,0.00012780,0.00156290,-0.00809389,
 -0.00079931,0.00195122,-0.00075760,0.05200189,-0.00002073,-0.00010342,
 -0.00002366,-0.00001193,0.00007758,0.00004861,0.00018834,-0.00047606,0
 .00019892,0.00047589,0.00021189,-0.00015275,-0.00035869,-0.00019188,-0
 .00008726,0.00011389,-0.00003820,0.00001005,0.00000357,-0.00001311,0.0
 0000529,-0.00000250,-0.00000218,0.00000191,0.00492749,-0.00305081,-0.0
 0654834,0.00006675,0.00004238,0.00010165,-0.00000235,0.00000295,0.0000
 1514,0.00000299,0.00000371,-0.00000605,-0.00001887,-0.00001089,-0.0000
 0403,0.00000047,-0.00000430,-0.00000364,0.00000027,-0.00000355,-0.0000
 0425,-0.00000417,-0.00000769,0.00001487,0.00000074,-0.00000030,0.00000
 361,-0.17517709,0.04981982,0.12583092,0.00028203,0.00017978,-0.0015122
 9,0.00102806,-0.00015473,-0.00036216,-0.00000137,0.00000035,0.00000107
 ,0.00000120,-0.00000031,0.00000125,0.00000132,-0.00000155,-0.00000416,
 -0.00000041,-0.00000097,-0.00000805,0.00000267,-0.00000328,0.00000016,
 -0.00000137,0.00000372,0.00000509,-0.00000102,-0.00000412,0.00000155,0
 .00000994,0.00000392,-0.00000499,0.00000168,0.00000016,-0.00000724,-0.
 00007311,0.00022495,0.00000319,-0.00001780,-0.00010184,0.00005823,0.00
 016726,-0.00003022,0.00012222,-0.01798790,0.00898173,0.01906344,-0.001
 14960,0.00005680,-0.00001858,0.18689379,-0.00011184,0.00002271,-0.0000
 1538,0.00008494,0.00003053,0.00003660,0.00003725,0.00022564,-0.0001768
 8,-0.00092683,0.00062056,0.00092103,-0.00011622,0.00025812,-0.00021001
 ,0.00010720,-0.00019695,-0.00008338,0.00000425,0.00000247,0.00001703,0
 .00002663,0.00000600,0.00000983,-0.00778799,0.00142891,0.00759005,-0.0
 0000097,0.00006209,0.00008040,0.00000376,-0.00000434,0.00001575,0.0000
 0573,0.00000651,-0.00000051,-0.00000379,0.00000200,0.00000114,0.000002
 33,0.00000729,-0.00000110,-0.00001747,-0.00000292,0.00000686,-0.000016
 63,-0.00000380,-0.00000715,-0.00000679,0.00001037,-0.00000310,0.050219
 66,-0.06846451,-0.05004208,0.00065880,-0.00033054,0.00192664,-0.000290
 91,-0.00008044,-0.00045590,0.00000020,-0.00000396,0.00000031,-0.000005
 52,0.00000669,-0.00000758,0.00000392,0.00000015,-0.00000086,-0.0000002
 3,0.00000057,-0.00000208,-0.00000944,0.00000133,-0.00000347,0.00000484
 ,0.00000454,0.00000128,-0.00000002,-0.00000633,0.00000161,0.00000977,0
 .00000308,-0.00000592,-0.00001003,0.00000757,-0.00000196,-0.00008726,0
 .00009075,-0.00027699,0.00010376,-0.00000797,-0.00002986,-0.00010363,-
 0.00011493,0.00000116,-0.00866228,0.00326692,0.00972841,0.02262186,-0.
 00698166,-0.02203022,-0.05554845,0.06926726,-0.00000172,0.00001559,-0.
 00002274,-0.00002124,0.00003067,-0.00016465,-0.00056019,0.00039175,0.0
 0022455,0.00066859,-0.00182249,0.00036047,0.00001175,0.00034352,0.0001
 7299,0.00012348,0.00002957,-0.00008005,-0.00000818,0.00000340,0.000026
 45,0.00000933,0.00001529,0.00000050,0.02023973,-0.00795647,-0.01945399
 ,-0.00007838,-0.00001790,0.00002677,-0.00001115,0.00001922,-0.00000781
 ,-0.00000597,-0.00000314,-0.00000080,0.00000606,0.00000199,0.00000542,
 0.00000484,0.00000487,0.00000258,-0.00000635,-0.00000335,-0.00000823,0
 .00000244,0.00001105,-0.00002661,0.00000811,0.00001390,-0.00002561,0.1
 2470311,-0.04937591,-0.16953486,-0.00312271,0.00286057,-0.00534732,0.0
 0150280,-0.00006526,0.00108679,-0.00000058,-0.00000316,0.00000203,-0.0
 0000130,0.00000122,0.00000042,0.,0.00000078,0.00000876,0.00000235,-0.0
 0000021,0.00000697,-0.00000116,-0.00000515,0.00000662,-0.00001730,-0.0
 0000498,0.00000496,-0.00000260,-0.00000150,0.00000224,-0.00001091,0.00
 000089,0.00001713,0.00000105,-0.00000119,0.00000901,-0.00069030,0.0000
 0184,0.00027592,-0.00010364,0.00001454,-0.00004913,-0.00014126,0.00022
 384,0.00028534,-0.00629238,0.00327014,0.00662947,-0.00112613,0.0000547
 7,0.00041208,-0.13628606,0.05238978,0.18613092,0.00039038,0.00005700,0
 .00019775,-0.00007894,-0.00047355,-0.00004064,-0.00030330,0.00068347,-
 0.00020515,0.00032036,-0.00190964,-0.00009992,-0.00028339,-0.00027077,
 -0.00063496,0.00018598,0.00051446,-0.00017193,0.00003772,-0.00001435,0
 .00005156,-0.00004554,-0.00001446,0.00000352,-0.01985691,-0.00877056,-
 0.00659568,0.00045533,-0.00004822,0.00034515,-0.00000902,0.00002836,-0
 .00003047,0.00001187,0.00000350,0.00000385,-0.00001366,-0.00000881,-0.
 00000447,-0.00000163,-0.00001656,0.00000228,0.00005039,0.00000217,-0.0
 0000076,0.00003019,0.00000558,0.00002470,0.00000776,-0.00002572,0.0000
 0643,0.00082614,0.00002075,-0.00147636,-0.26276139,-0.09281660,-0.0587
 7247,-0.00237108,0.00255938,0.00457416,0.00000182,0.00001438,-0.000002
 25,0.00000680,-0.00001066,0.00001220,-0.00000581,-0.00000204,-0.000001
 48,0.00000127,-0.00000705,0.00001840,0.00000427,0.00001564,0.00000049,
 0.00001211,-0.00000460,-0.00001874,-0.00000194,0.00001000,0.00000380,-
 0.00000295,0.00000009,-0.00000409,0.00000921,-0.00001011,-0.00000706,-
 0.00145753,-0.00080683,-0.00021393,0.00028113,-0.00008684,-0.00002169,
 0.00029170,0.00010728,-0.00006431,0.00039341,-0.00005175,0.00056495,-0
 .00004374,0.00003647,0.00013577,0.00022323,0.00026111,-0.00000283,0.28
 597252,-0.00020881,0.00002346,0.00002028,0.00009538,0.00020323,-0.0000
 4853,0.00000330,-0.00012288,0.00010276,0.00018321,0.00055110,0.0007484
 7,0.00044645,-0.00072719,-0.00061702,0.00013309,-0.00018750,-0.0000111
 8,-0.00000897,0.00000664,-0.00000105,0.00002298,0.00000919,-0.00000647
 ,0.00853967,0.00206830,0.00241185,0.00044528,-0.00067424,-0.00073320,0
 .00001834,0.00001142,-0.00003425,-0.00000493,-0.00000283,-0.00000377,-
 0.00000542,0.00000540,0.00000612,0.00000477,0.00001310,0.00000476,-0.0
 0001520,0.00000276,0.00000261,-0.00000887,0.00000040,-0.00001002,-0.00
 000280,0.00000877,-0.00000123,-0.00029782,0.00010168,0.00047062,-0.094
 40865,-0.08812049,-0.02518298,0.00094022,-0.00017377,-0.00081343,0.000
 00134,-0.00000385,-0.00000120,-0.00000611,0.00000467,-0.00000567,0.000
 00171,-0.00000034,0.00000198,-0.00000127,-0.00000040,0.00000088,-0.000
 00545,0.00000005,-0.00000165,0.00000024,-0.00000110,0.,0.00000053,-0.0
 0000365,-0.00000133,0.00000080,-0.00000126,0.00000124,-0.00000659,0.00
 000273,0.00000288,0.00033143,0.00058588,-0.00013325,0.00016506,0.00043
 049,0.00000654,-0.00014334,-0.00011518,-0.00019304,-0.00018306,0.00012
 403,0.00026434,-0.00009339,-0.00002191,-0.00006484,0.00007956,-0.00010
 528,0.00010706,0.10233242,0.09299397,-0.00017204,0.00000716,-0.0000149
 4,0.00002622,0.00019996,0.00000248,0.00011751,-0.00019900,0.00027006,-
 0.00060277,0.00062526,0.00017221,0.00023691,-0.00026660,-0.00035179,0.
 00004648,-0.00012536,0.00000644,-0.00000820,-0.00000464,0.00000086,0.0
 0000557,0.00000416,-0.00002171,0.01836697,0.00916253,0.00435742,0.0002
 7251,-0.00055930,-0.00063159,0.00000130,0.00000232,-0.00000880,0.00001
 664,0.00001096,0.00001141,-0.00000236,-0.00000404,-0.00001022,0.000001
 93,-0.00000353,-0.00000284,-0.00000073,0.00000009,-0.00000814,0.000006
 54,0.00000078,0.00000380,0.00000351,-0.00000607,-0.00001500,0.00060882
 ,0.00045801,0.00174683,-0.06006668,-0.02535242,-0.06429245,0.00286811,
 -0.00142404,-0.00282527,-0.00000264,0.00000257,0.00000429,0.00000190,-
 0.00000077,-0.00000037,-0.00000468,-0.00000260,0.00000115,0.00000157,0
 .00000326,-0.00000139,0.00000262,-0.00000269,0.00000451,-0.00000542,0.
 00000530,0.00000745,-0.00000029,-0.00000158,0.00000068,-0.00000037,0.0
 0000174,0.00000098,0.00000257,-0.00000339,-0.00000201,0.00132489,0.000
 39763,0.00052070,-0.00014487,-0.00008784,-0.00014196,0.00014896,-0.000
 07451,0.00020485,-0.00016410,-0.00030809,-0.00029253,-0.00004541,0.000
 13445,-0.00006720,-0.00014141,-0.00009165,0.00022552,0.06265367,0.0298
 0450,0.06795176,-0.00003073,-0.00008154,0.00001444,-0.00004225,0.00008
 168,0.00002830,0.00004606,-0.00019528,-0.00032012,0.00067540,-0.000758
 87,0.00031429,-0.00025004,0.00000499,-0.00017039,0.00011975,-0.0000167
 1,0.00011448,0.00000816,-0.00000899,-0.00001623,0.00000252,0.00000583,
 0.00000004,0.00470813,-0.00772265,0.02054596,0.00006688,0.00003170,-0.
 00007726,-0.00000009,0.00000793,-0.00000638,-0.00001023,-0.00000015,-0
 .00001218,-0.00000709,0.00000160,0.00000500,0.00000300,-0.00000237,-0.
 00000008,-0.00000220,-0.00000088,-0.00000058,-0.00000620,-0.00000495,0
 .00000521,-0.00000092,0.00000619,0.00001138,-0.00324074,0.00142708,0.0
 0287520,-0.06453348,0.02110510,-0.06325973,0.00153849,-0.00018499,0.00
 059511,-0.00000067,-0.00000411,-0.00000343,0.00000093,-0.00000065,0.00
 000245,0.00000457,0.00000418,-0.00000223,-0.00000522,0.00000118,-0.000
 01108,0.00000350,-0.00000534,-0.00000239,-0.00000109,-0.00000113,0.000
 00330,-0.00000021,-0.00000117,-0.00000253,0.00000143,-0.00000094,-0.00
 000021,0.00000111,0.00000032,-0.00000096,0.00019002,0.00010242,-0.0001
 7456,-0.00005000,-0.00007715,-0.00005855,-0.00028325,0.00019335,-0.000
 35389,0.00015625,0.00012101,0.00010854,-0.00014136,0.00000816,-0.00016
 699,0.00055061,-0.00030451,0.00142551,-0.00609413,0.01061706,-0.025878
 98,0.06797596,-0.00010209,0.00002532,-0.00003913,0.00008433,0.00002789
 ,0.00002105,-0.00008861,0.00024424,0.00015979,-0.00029450,0.00059502,-
 0.00125072,-0.00019999,0.00027017,0.00012789,0.00005452,-0.00019915,0.
 00011561,0.00001243,0.00000345,-0.00001396,0.00002815,0.00000657,0.000
 00515,-0.00247423,0.00152304,-0.00919533,0.00003520,0.00006418,-0.0000
 7057,0.00000681,-0.00000415,0.00000442,-0.00000094,0.00000520,-0.00000
 574,0.00000376,0.00000779,0.00000316,0.00000383,0.00000634,-0.00000280
 ,-0.00001839,-0.00000331,-0.00000109,-0.00001177,-0.00000247,-0.000014
 73,-0.00000798,0.00001087,0.00000105,0.00128962,-0.00011368,-0.0012044
 0,0.02105239,-0.07549680,0.07846690,-0.00041690,-0.00010994,0.00022821
 ,0.00000091,-0.00000610,-0.00000180,-0.00000940,0.00000756,-0.00000350
 ,0.00000524,0.00000253,0.00000917,0.00000413,0.00000425,0.00000101,-0.
 00000972,0.00000110,-0.00000213,-0.00000088,0.00000051,0.00000139,0.00
 000035,-0.00000416,-0.00000055,0.00000317,0.00000012,0.00000231,-0.000
 00871,0.00000643,0.00000386,-0.00008955,-0.00009992,-0.00007457,0.0000
 6614,-0.00000676,0.00007631,-0.00027426,0.00005712,0.00017725,0.000182
 72,-0.00010692,0.00019413,-0.00003371,0.00032792,-0.00023678,0.0000163
 8,0.00065024,-0.00048568,-0.00255872,0.00390998,-0.01264032,-0.0245576
 5,0.07681435,-0.00000652,-0.00006024,-0.00001271,0.00010017,0.00001785
 ,-0.00013595,0.00045369,-0.00057798,0.00035326,-0.00052206,0.00168802,
 0.00017303,-0.00027071,-0.00038574,0.00005080,-0.00000644,-0.00005449,
 -0.00008429,-0.00000231,-0.00001056,0.00002040,-0.00000588,-0.00001410
 ,-0.00000551,-0.00621703,0.00627067,-0.01935051,0.00010508,0.00003902,
 0.00002374,0.00001875,-0.00001862,0.00000210,-0.00001164,0.00000230,-0
 .00001044,-0.00000016,0.00000742,0.00000707,-0.00000287,-0.00001048,-0
 .00000170,0.00001136,-0.00001215,-0.00002909,0.00000672,0.00000102,-0.
 00000209,0.00000617,-0.00001013,-0.00002456,0.00450115,-0.00222029,-0.
 00204065,-0.06214782,0.07767631,-0.27352720,-0.00126852,-0.00007110,0.
 00059950,0.00000099,-0.00000115,0.00000176,-0.00000649,0.00000101,0.00
 000973,0.00000388,0.00000048,0.00002288,0.00001149,0.00000607,0.000009
 11,-0.00000147,0.00000258,0.00000608,-0.00000708,-0.00000076,0.0000076
 1,-0.00000076,0.00000267,0.00000103,-0.00000415,-0.00000190,0.00000871
 ,0.00000115,-0.00000085,0.00000079,0.00008336,-0.00022534,0.00024896,0
 .00011015,-0.00006336,-0.00001791,0.00034615,0.00009972,0.00049084,-0.
 00002623,-0.00007162,0.00029315,-0.00002900,0.00007337,0.00029129,-0.0
 0023916,0.00052826,-0.00147192,-0.00135292,0.00221530,-0.00589876,0.06
 579729,-0.08435428,0.29794646,-0.00021104,0.00022513,0.00000587,0.0002
 6253,0.00019340,-0.00044730,-0.00048855,0.00109616,0.00010171,-0.00286
 312,-0.00139882,0.00334040,0.00012898,0.00043552,-0.00032263,0.0002496
 7,-0.00020003,-0.00028279,0.00000079,0.00001166,0.00009172,0.00005849,
 0.00002330,0.00001816,-0.00369882,0.02329172,0.00106693,0.00019306,-0.
 00003978,0.00026350,-0.00002165,0.00002110,0.00001617,0.00001984,0.000
 01104,0.00000252,0.00000833,0.00001264,0.00000225,0.00000972,0.0000141
 2,0.00000423,-0.00002996,0.00000896,0.00000968,-0.00001285,0.00000756,
 -0.00002447,-0.00002085,0.00002039,0.00000350,0.00056380,0.00004665,-0
 .00126954,-0.04990300,0.01991475,-0.00080260,0.00087463,0.00133790,-0.
 00014453,-0.00000014,-0.00000977,0.00000231,-0.00001319,0.00000768,-0.
 00001579,0.00000431,-0.00000250,-0.00000154,0.00000218,0.00000146,0.00
 000156,-0.00001678,0.00000433,-0.00000725,0.00000151,0.00000473,-0.000
 00588,-0.00000097,-0.00001084,-0.00000010,0.00000503,-0.00000153,0.000
 00187,-0.00001581,0.00000731,0.00000480,0.00030168,-0.00011579,-0.0000
 9061,-0.00072307,-0.00038704,0.00043141,-0.00009326,-0.00001437,-0.000
 13225,-0.00000956,-0.00011477,0.00007377,0.00033888,-0.00041626,0.0001
 1513,-0.00011327,-0.00014522,-0.00021680,0.00381738,-0.02896217,0.0005
 2572,-0.00135288,0.00830791,0.00057169,0.05274794,0.00042451,-0.000074
 95,0.00012303,-0.00019138,-0.00039730,0.00008954,0.00001956,-0.0002194
 4,-0.00039151,0.00165679,0.00121338,-0.00169447,0.00017705,-0.00044757
 ,-0.00010636,-0.00014955,0.00050069,-0.00004351,0.00000353,-0.00002806
 ,0.00000293,-0.00009578,-0.00004460,0.00002176,0.00001399,-0.00980409,
 0.00078262,0.00004230,0.00002136,0.00015436,0.00000809,-0.00002269,-0.
 00002681,-0.00000809,-0.00000684,0.00000577,-0.00001837,-0.00002530,-0
 .00001153,-0.00001747,-0.00003713,-0.00000325,0.00007988,-0.00000571,-
 0.00001419,0.00003411,0.00000044,0.00004807,0.00002373,-0.00003681,0.0
 0000230,-0.00047993,0.00037634,0.00058471,0.02085932,-0.31450641,-0.00
 351420,-0.00101685,0.00038790,0.00057213,-0.00000407,0.00001407,-0.000
 00212,0.00002160,-0.00002243,0.00002848,-0.00000973,0.00000402,-0.0000
 0687,-0.00000489,0.00000055,-0.00000615,0.00002833,-0.00000621,0.00000
 776,-0.00000308,-0.00000017,0.00000579,-0.00000265,0.00001148,-0.00000
 052,-0.00000746,0.00000361,-0.00000361,0.00002841,-0.00001823,-0.00001
 192,0.00001190,0.00036667,-0.00008913,0.00029043,0.00041378,0.00016081
 ,0.00008319,-0.00004131,-0.00012310,0.00010583,-0.00001508,-0.00008917
 ,-0.00022493,0.00032738,-0.00044049,0.00004217,0.00032134,-0.00005987,
 0.00125578,-0.01079538,0.00033776,0.00021023,-0.00841883,-0.00046692,-
 0.02318652,0.34101154,0.00039448,-0.00016193,0.00010678,-0.00015885,-0
 .00042306,0.00026882,0.00047886,-0.00102883,-0.00013856,0.00300420,0.0
 0072911,-0.00223274,-0.00015218,-0.00079862,0.00016394,-0.00014860,0.0
 0046815,-0.00005533,0.00000214,-0.00001939,-0.00002328,-0.00007571,-0.
 00004187,0.00001637,0.00169730,-0.02182428,-0.00167232,0.00001526,0.00
 004346,0.00008041,0.00001099,-0.00001517,-0.00003483,-0.00001370,-0.00
 000994,-0.00000299,-0.00001603,-0.00002059,-0.00000439,-0.00001187,-0.
 00002285,-0.00000515,0.00005964,-0.00001491,-0.00002353,0.00001740,-0.
 00000244,0.00003220,0.00001695,-0.00002903,-0.00000853,-0.00033000,-0.
 00103621,0.00117555,-0.00080336,-0.00231602,-0.04833251,-0.00104385,-0
 .00035879,0.00039347,-0.00000040,0.00000837,-0.00000297,0.00001012,-0.
 00001124,0.00002777,-0.00000117,0.00000431,0.00000983,0.00000391,0.000
 00584,-0.00000217,0.00001560,-0.00000160,0.00000876,-0.00000245,-0.000
 00043,0.00000944,-0.00000187,0.00000812,-0.00000016,-0.00000437,0.0000
 0251,-0.00000040,0.00001643,-0.00000929,-0.00000746,-0.00023576,0.0000
 5243,-0.00012408,0.00012002,0.00031987,0.00020906,0.00005196,0.0001405
 2,-0.00002689,-0.00009232,0.00001345,-0.00010627,0.00034545,0.00029119
 ,-0.00048102,-0.00007307,0.00018996,0.00026981,0.00112344,-0.00830809,
 -0.00090645,-0.00132778,0.02999941,0.00204500,-0.00289082,0.00417788,0
 .04937482\\0.00001375,0.00000825,-0.00000235,-0.00000324,-0.00001869,-
 0.00001755,-0.00001953,-0.00000050,-0.00000612,0.00000847,-0.00000653,
 -0.00000192,-0.00000174,-0.00001819,-0.00000623,-0.00002843,0.00000428
 ,-0.00000239,0.00000211,-0.00000242,0.00000430,0.00002056,0.00000321,0
 .00001465,0.00000527,0.00002186,0.00000687,-0.00000030,0.00000340,0.00
 000471,0.00000224,-0.00001007,0.00001780,0.00000061,0.00000088,-0.0000
 0422,0.00000268,0.00000517,-0.00002031,0.00000965,0.00000003,-0.000000
 41,-0.00000177,-0.00000808,-0.00000104,-0.00000385,0.00000184,-0.00000
 036,0.00000793,0.00001828,0.00000319,-0.00000199,-0.00000342,0.0000021
 8,-0.00000798,-0.00000260,-0.00000458,0.00001564,0.00000395,0.00000669
 ,0.00000228,0.00000105,0.00000501,0.00000209,-0.00000214,0.00000162,-0
 .00000200,-0.00000060,0.00000046,-0.00000038,-0.00000034,-0.00000434,0
 .00000259,-0.00000352,0.00000343,-0.00000213,-0.00000058,0.00000680,0.
 00000278,-0.00000021,-0.00000066,-0.00000027,0.00000158,0.00000018,0.0
 0000333,0.00000090,0.00000359,-0.00000359,-0.00000085,0.00000444,-0.00
 000649,0.00000462,-0.00000117,-0.00000371,0.00000006,-0.00000616,0.000
 00115,0.00000185,-0.00000495,-0.00000244,0.00000161,0.00000010,-0.0000
 0092,-0.00000201,-0.00000153,-0.00000166,-0.00000146,0.00000280,-0.000
 00545,-0.00000220,-0.00000074,-0.00000527,0.00000161,-0.00000179\\\@


 HAPPINESS IS NOT HAVING WHAT YOU WANT --
 HAPPINESS IS WANTING WHAT YOU HAVE!

              -- FROM MRS. SEVERN'S DESK
 Job cpu time:       0 days  2 hours 23 minutes 34.9 seconds.
 File lengths (MBytes):  RWF=    546 Int=      0 D2E=      0 Chk=     19 Scr=      1
 Normal termination of Gaussian 09 at Thu May  3 14:42:58 2018.
 Read checkpoint file 2.chk
 Write formatted file 2.fchk
 FChkPn:  Coordinates translated and rotated.
 FChkPn:  Coordinates match /B/ after translation and rotation.
