 Entering Gaussian System, Link 0=g09
 Initial command:
 /ihome/crc/build/g09/g09-D.01/TAR/g09/l1.exe "/scratch/slurm-1121915/Gau-227423.inp" -scrdir="/scratch/slurm-1121915/"
 Entering Link 1 = /ihome/crc/build/g09/g09-D.01/TAR/g09/l1.exe PID=    227424.
  
 Copyright (c) 1988,1990,1992,1993,1995,1998,2003,2009,2013,
            Gaussian, Inc.  All Rights Reserved.
  
 This is part of the Gaussian(R) 09 program.  It is based on
 the Gaussian(R) 03 system (copyright 2003, Gaussian, Inc.),
 the Gaussian(R) 98 system (copyright 1998, Gaussian, Inc.),
 the Gaussian(R) 94 system (copyright 1995, Gaussian, Inc.),
 the Gaussian 92(TM) system (copyright 1992, Gaussian, Inc.),
 the Gaussian 90(TM) system (copyright 1990, Gaussian, Inc.),
 the Gaussian 88(TM) system (copyright 1988, Gaussian, Inc.),
 the Gaussian 86(TM) system (copyright 1986, Carnegie Mellon
 University), and the Gaussian 82(TM) system (copyright 1983,
 Carnegie Mellon University). Gaussian is a federally registered
 trademark of Gaussian, Inc.
  
 This software contains proprietary and confidential information,
 including trade secrets, belonging to Gaussian, Inc.
  
 This software is provided under written license and may be
 used, copied, transmitted, or stored only in accord with that
 written license.
  
 The following legend is applicable only to US Government
 contracts under FAR:
  
                    RESTRICTED RIGHTS LEGEND
  
 Use, reproduction and disclosure by the US Government is
 subject to restrictions as set forth in subparagraphs (a)
 and (c) of the Commercial Computer Software - Restricted
 Rights clause in FAR 52.227-19.
  
 Gaussian, Inc.
 340 Quinnipiac St., Bldg. 40, Wallingford CT 06492
  
  
 ---------------------------------------------------------------
 Warning -- This program may not be used in any manner that
 competes with the business of Gaussian, Inc. or will provide
 assistance to any competitor of Gaussian, Inc.  The licensee
 of this program is prohibited from giving any competitor of
 Gaussian, Inc. access to this program.  By using this program,
 the user acknowledges that Gaussian, Inc. is engaged in the
 business of creating and licensing software in the field of
 computational chemistry and represents and warrants to the
 licensee that it is not a competitor of Gaussian, Inc. and that
 it will not use this program in any manner prohibited above.
 ---------------------------------------------------------------
  

 Cite this work as:
 Gaussian 09, Revision D.01,
 M. J. Frisch, G. W. Trucks, H. B. Schlegel, G. E. Scuseria, 
 M. A. Robb, J. R. Cheeseman, G. Scalmani, V. Barone, B. Mennucci, 
 G. A. Petersson, H. Nakatsuji, M. Caricato, X. Li, H. P. Hratchian, 
 A. F. Izmaylov, J. Bloino, G. Zheng, J. L. Sonnenberg, M. Hada, 
 M. Ehara, K. Toyota, R. Fukuda, J. Hasegawa, M. Ishida, T. Nakajima, 
 Y. Honda, O. Kitao, H. Nakai, T. Vreven, J. A. Montgomery, Jr., 
 J. E. Peralta, F. Ogliaro, M. Bearpark, J. J. Heyd, E. Brothers, 
 K. N. Kudin, V. N. Staroverov, T. Keith, R. Kobayashi, J. Normand, 
 K. Raghavachari, A. Rendell, J. C. Burant, S. S. Iyengar, J. Tomasi, 
 M. Cossi, N. Rega, J. M. Millam, M. Klene, J. E. Knox, J. B. Cross, 
 V. Bakken, C. Adamo, J. Jaramillo, R. Gomperts, R. E. Stratmann, 
 O. Yazyev, A. J. Austin, R. Cammi, C. Pomelli, J. W. Ochterski, 
 R. L. Martin, K. Morokuma, V. G. Zakrzewski, G. A. Voth, 
 P. Salvador, J. J. Dannenberg, S. Dapprich, A. D. Daniels, 
 O. Farkas, J. B. Foresman, J. V. Ortiz, J. Cioslowski, 
 and D. J. Fox, Gaussian, Inc., Wallingford CT, 2013.
 
 ******************************************
 Gaussian 09:  EM64L-G09RevD.01 24-Apr-2013
                 8-May-2018 
 ******************************************
 %NProc=8
 Will use up to    8 processors via shared memory.
 %Mem=8GB
 %chk=3.chk
 ----------------------------------------------------------------------
 #p freq m062x/6-311+g(d,p) scrf=(smd,solvent=chloroform) Geom=Checkpoi
 nt pop=nbo
 ----------------------------------------------------------------------
 1/10=4,29=2,30=1,38=1/1,3;
 2/12=2,40=1/2;
 3/5=4,6=6,7=111,11=2,14=-4,16=1,25=1,30=1,70=32201,71=2,72=7,74=-55,140=1/1,2,3;
 4//1;
 5/5=2,38=5,53=7,98=1/2;
 8/6=4,10=90,11=11/1;
 11/6=1,8=1,9=11,15=111,16=1/1,2,10;
 10/6=1/2;
 6/7=2,8=2,9=2,10=2,18=1,28=1,40=1/1,7;
 7/8=1,10=1,25=1/1,2,3,16;
 1/10=4,30=1/3;
 99//99;
 Leave Link    1 at Tue May  8 16:15:47 2018, MaxMem=  1073741824 cpu:         0.2
 (Enter /ihome/crc/build/g09/g09-D.01/TAR/g09/l101.exe)
 -----
 3.g09
 -----
 Structure from the checkpoint file:  "3.chk"
 Charge =  0 Multiplicity = 1
 Redundant internal coordinates found in file.
 C,0,5.7878330793,0.147655846,-0.9069946945
 C,0,5.6945122163,0.8935141068,0.2700050982
 C,0,4.7116732277,-0.6257890861,-1.3254601103
 C,0,3.5327522,-0.6467294483,-0.5665935248
 C,0,3.440870994,0.0970118653,0.6140772759
 C,0,4.5250718209,0.8651802004,1.0294518983
 N,0,-1.884068713,0.3215814731,0.7878476101
 C,0,-1.424318492,1.298495527,-0.0050478734
 C,0,-1.7858502429,1.3780461219,-1.3517605704
 C,0,-2.626104587,0.4088818254,-1.9017005125
 C,0,-3.0808806574,-0.604656151,-1.059998107
 C,0,-2.6950094806,-0.6157313256,0.2843691857
 H,0,6.6989571034,0.1701242659,-1.4972164235
 H,0,6.5364226005,1.4984895674,0.5946720683
 H,0,2.5327462173,0.0787096957,1.2068540224
 H,0,4.4529574204,1.4429794795,1.9459516111
 H,0,4.7700269439,-1.2102360677,-2.2385422551
 C,0,-0.5085409854,2.3492868162,0.6280804558
 H,0,-1.4199990407,2.1876764004,-1.9781045937
 C,0,-3.2063863502,-1.7049562096,1.2307716538
 C,0,-3.001013474,0.4408420711,-3.3592081784
 H,0,-3.7384982838,-1.3768579104,-1.4520951835
 C,0,2.4279757472,-1.4876941648,-1.0887724347
 O,0,2.4972601352,-2.233570979,-2.0172514112
 Cl,0,0.852867077,-1.3229581948,-0.240645929
 H,0,-3.0255622485,1.4666382219,-3.7389330684
 H,0,-3.9797597571,-0.018060327,-3.5273439558
 H,0,-2.2662942691,-0.1163572464,-3.95239595
 C,0,-4.738860422,-1.6102666108,1.321273371
 C,0,-2.6145661223,-1.5448816647,2.6331954252
 C,0,-2.8169345873,-3.0882182923,0.6845924319
 C,0,-1.302631379,3.6566845958,0.7915070485
 C,0,0.711500607,2.6088163193,-0.2704196925
 C,0,-0.0185507224,1.8876229617,2.0035701523
 H,0,0.4318421636,3.0572227295,-1.2296068213
 H,0,1.2550420247,1.6797019951,-0.4772929612
 H,0,1.4008234976,3.3015748969,0.2272094079
 H,0,-1.6489966711,4.0360579472,-0.1767963638
 H,0,-0.6730533644,4.4274055875,1.2533400929
 H,0,-2.1798405051,3.5030805835,1.4308409109
 H,0,-0.8469509784,1.7714549611,2.7084221613
 H,0,0.6820058623,2.6269671949,2.4100371751
 H,0,0.4927621676,0.9204919664,1.937911528
 H,0,-3.2504466358,-3.275682769,-0.3036446655
 H,0,-3.1771382045,-3.8717731408,1.3620486463
 H,0,-1.7283301242,-3.1859005893,0.600085004
 H,0,-2.8961228894,-0.5869613979,3.0822748698
 H,0,-1.5203746279,-1.592690455,2.6139588197
 H,0,-2.9843654604,-2.3511550442,3.2778351445
 H,0,-5.0501703064,-0.627545216,1.6945837497
 H,0,-5.1231842823,-2.3732072805,2.0092531643
 H,0,-5.2114232412,-1.7696266515,0.3456612974
 Recover connectivity data from disk.
 NAtoms=     52 NQM=       52 NQMF=       0 NMMI=      0 NMMIF=      0
                NMic=       0 NMicF=      0.
                    Isotopes and Nuclear Properties:
 (Nuclear quadrupole moments (NQMom) in fm**2, nuclear magnetic moments (NMagM)
  in nuclear magnetons)

  Atom         1           2           3           4           5           6           7           8           9          10
 IAtWgt=          12          12          12          12          12          12          14          12          12          12
 AtmWgt=  12.0000000  12.0000000  12.0000000  12.0000000  12.0000000  12.0000000  14.0030740  12.0000000  12.0000000  12.0000000
 NucSpn=           0           0           0           0           0           0           2           0           0           0
 AtZEff=  -3.6000000  -3.6000000  -3.6000000  -3.6000000  -3.6000000  -3.6000000  -4.5500000  -3.6000000  -3.6000000  -3.6000000
 NQMom=    0.0000000   0.0000000   0.0000000   0.0000000   0.0000000   0.0000000   2.0440000   0.0000000   0.0000000   0.0000000
 NMagM=    0.0000000   0.0000000   0.0000000   0.0000000   0.0000000   0.0000000   0.4037610   0.0000000   0.0000000   0.0000000
 AtZNuc=   6.0000000   6.0000000   6.0000000   6.0000000   6.0000000   6.0000000   7.0000000   6.0000000   6.0000000   6.0000000

  Atom        11          12          13          14          15          16          17          18          19          20
 IAtWgt=          12          12           1           1           1           1           1          12           1          12
 AtmWgt=  12.0000000  12.0000000   1.0078250   1.0078250   1.0078250   1.0078250   1.0078250  12.0000000   1.0078250  12.0000000
 NucSpn=           0           0           1           1           1           1           1           0           1           0
 AtZEff=  -3.6000000  -3.6000000  -1.0000000  -1.0000000  -1.0000000  -1.0000000  -1.0000000  -3.6000000  -1.0000000  -3.6000000
 NQMom=    0.0000000   0.0000000   0.0000000   0.0000000   0.0000000   0.0000000   0.0000000   0.0000000   0.0000000   0.0000000
 NMagM=    0.0000000   0.0000000   2.7928460   2.7928460   2.7928460   2.7928460   2.7928460   0.0000000   2.7928460   0.0000000
 AtZNuc=   6.0000000   6.0000000   1.0000000   1.0000000   1.0000000   1.0000000   1.0000000   6.0000000   1.0000000   6.0000000

  Atom        21          22          23          24          25          26          27          28          29          30
 IAtWgt=          12           1          12          16          35           1           1           1          12          12
 AtmWgt=  12.0000000   1.0078250  12.0000000  15.9949146  34.9688527   1.0078250   1.0078250   1.0078250  12.0000000  12.0000000
 NucSpn=           0           1           0           0           3           1           1           1           0           0
 AtZEff=  -3.6000000  -1.0000000  -3.6000000  -5.6000000 -14.2400000  -1.0000000  -1.0000000  -1.0000000  -3.6000000  -3.6000000
 NQMom=    0.0000000   0.0000000   0.0000000   0.0000000  -8.1650000   0.0000000   0.0000000   0.0000000   0.0000000   0.0000000
 NMagM=    0.0000000   2.7928460   0.0000000   0.0000000   0.8218740   2.7928460   2.7928460   2.7928460   0.0000000   0.0000000
 AtZNuc=   6.0000000   1.0000000   6.0000000   8.0000000  17.0000000   1.0000000   1.0000000   1.0000000   6.0000000   6.0000000

  Atom        31          32          33          34          35          36          37          38          39          40
 IAtWgt=          12          12          12          12           1           1           1           1           1           1
 AtmWgt=  12.0000000  12.0000000  12.0000000  12.0000000   1.0078250   1.0078250   1.0078250   1.0078250   1.0078250   1.0078250
 NucSpn=           0           0           0           0           1           1           1           1           1           1
 AtZEff=  -3.6000000  -3.6000000  -3.6000000  -3.6000000  -1.0000000  -1.0000000  -1.0000000  -1.0000000  -1.0000000  -1.0000000
 NQMom=    0.0000000   0.0000000   0.0000000   0.0000000   0.0000000   0.0000000   0.0000000   0.0000000   0.0000000   0.0000000
 NMagM=    0.0000000   0.0000000   0.0000000   0.0000000   2.7928460   2.7928460   2.7928460   2.7928460   2.7928460   2.7928460
 AtZNuc=   6.0000000   6.0000000   6.0000000   6.0000000   1.0000000   1.0000000   1.0000000   1.0000000   1.0000000   1.0000000

  Atom        41          42          43          44          45          46          47          48          49          50
 IAtWgt=           1           1           1           1           1           1           1           1           1           1
 AtmWgt=   1.0078250   1.0078250   1.0078250   1.0078250   1.0078250   1.0078250   1.0078250   1.0078250   1.0078250   1.0078250
 NucSpn=           1           1           1           1           1           1           1           1           1           1
 AtZEff=  -1.0000000  -1.0000000  -1.0000000  -1.0000000  -1.0000000  -1.0000000  -1.0000000  -1.0000000  -1.0000000  -1.0000000
 NQMom=    0.0000000   0.0000000   0.0000000   0.0000000   0.0000000   0.0000000   0.0000000   0.0000000   0.0000000   0.0000000
 NMagM=    2.7928460   2.7928460   2.7928460   2.7928460   2.7928460   2.7928460   2.7928460   2.7928460   2.7928460   2.7928460
 AtZNuc=   1.0000000   1.0000000   1.0000000   1.0000000   1.0000000   1.0000000   1.0000000   1.0000000   1.0000000   1.0000000

  Atom        51          52
 IAtWgt=           1           1
 AtmWgt=   1.0078250   1.0078250
 NucSpn=           1           1
 AtZEff=  -1.0000000  -1.0000000
 NQMom=    0.0000000   0.0000000
 NMagM=    2.7928460   2.7928460
 AtZNuc=   1.0000000   1.0000000
 Leave Link  101 at Tue May  8 16:15:47 2018, MaxMem=  1073741824 cpu:         1.3
 (Enter /ihome/crc/build/g09/g09-D.01/TAR/g09/l103.exe)

 GradGradGradGradGradGradGradGradGradGradGradGradGradGradGradGradGradGrad
 Berny optimization.
 Initialization pass.
                           ----------------------------
                           !    Initial Parameters    !
                           ! (Angstroms and Degrees)  !
 --------------------------                            --------------------------
 ! Name  Definition              Value          Derivative Info.                !
 --------------------------------------------------------------------------------
 ! R1    R(1,2)                  1.3965         calculate D2E/DX2 analytically  !
 ! R2    R(1,3)                  1.3898         calculate D2E/DX2 analytically  !
 ! R3    R(1,13)                 1.0858         calculate D2E/DX2 analytically  !
 ! R4    R(2,6)                  1.3947         calculate D2E/DX2 analytically  !
 ! R5    R(2,14)                 1.0864         calculate D2E/DX2 analytically  !
 ! R6    R(3,4)                  1.4022         calculate D2E/DX2 analytically  !
 ! R7    R(3,17)                 1.0857         calculate D2E/DX2 analytically  !
 ! R8    R(4,5)                  1.3984         calculate D2E/DX2 analytically  !
 ! R9    R(4,23)                 1.4834         calculate D2E/DX2 analytically  !
 ! R10   R(5,6)                  1.3922         calculate D2E/DX2 analytically  !
 ! R11   R(5,15)                 1.0846         calculate D2E/DX2 analytically  !
 ! R12   R(6,16)                 1.0858         calculate D2E/DX2 analytically  !
 ! R13   R(7,8)                  1.3396         calculate D2E/DX2 analytically  !
 ! R14   R(7,12)                 1.3378         calculate D2E/DX2 analytically  !
 ! R15   R(8,9)                  1.3967         calculate D2E/DX2 analytically  !
 ! R16   R(8,18)                 1.5309         calculate D2E/DX2 analytically  !
 ! R17   R(9,10)                 1.3956         calculate D2E/DX2 analytically  !
 ! R18   R(9,19)                 1.087          calculate D2E/DX2 analytically  !
 ! R19   R(10,11)                1.3938         calculate D2E/DX2 analytically  !
 ! R20   R(10,21)                1.5053         calculate D2E/DX2 analytically  !
 ! R21   R(11,12)                1.3987         calculate D2E/DX2 analytically  !
 ! R22   R(11,22)                1.0874         calculate D2E/DX2 analytically  !
 ! R23   R(12,20)                1.5309         calculate D2E/DX2 analytically  !
 ! R24   R(15,36)                2.6518         calculate D2E/DX2 analytically  !
 ! R25   R(15,43)                2.3248         calculate D2E/DX2 analytically  !
 ! R26   R(18,32)                1.5384         calculate D2E/DX2 analytically  !
 ! R27   R(18,33)                1.5373         calculate D2E/DX2 analytically  !
 ! R28   R(18,34)                1.5314         calculate D2E/DX2 analytically  !
 ! R29   R(20,29)                1.5381         calculate D2E/DX2 analytically  !
 ! R30   R(20,30)                1.5306         calculate D2E/DX2 analytically  !
 ! R31   R(20,31)                1.5373         calculate D2E/DX2 analytically  !
 ! R32   R(21,26)                1.0941         calculate D2E/DX2 analytically  !
 ! R33   R(21,27)                1.094          calculate D2E/DX2 analytically  !
 ! R34   R(21,28)                1.0964         calculate D2E/DX2 analytically  !
 ! R35   R(23,24)                1.193          calculate D2E/DX2 analytically  !
 ! R36   R(23,25)                1.7965         calculate D2E/DX2 analytically  !
 ! R37   R(29,50)                1.0964         calculate D2E/DX2 analytically  !
 ! R38   R(29,51)                1.0969         calculate D2E/DX2 analytically  !
 ! R39   R(29,52)                1.0957         calculate D2E/DX2 analytically  !
 ! R40   R(30,47)                1.0948         calculate D2E/DX2 analytically  !
 ! R41   R(30,48)                1.0954         calculate D2E/DX2 analytically  !
 ! R42   R(30,49)                1.0965         calculate D2E/DX2 analytically  !
 ! R43   R(31,44)                1.0953         calculate D2E/DX2 analytically  !
 ! R44   R(31,45)                1.0967         calculate D2E/DX2 analytically  !
 ! R45   R(31,46)                1.0962         calculate D2E/DX2 analytically  !
 ! R46   R(32,38)                1.0961         calculate D2E/DX2 analytically  !
 ! R47   R(32,39)                1.0971         calculate D2E/DX2 analytically  !
 ! R48   R(32,40)                1.0963         calculate D2E/DX2 analytically  !
 ! R49   R(33,35)                1.0951         calculate D2E/DX2 analytically  !
 ! R50   R(33,36)                1.0961         calculate D2E/DX2 analytically  !
 ! R51   R(33,37)                1.0967         calculate D2E/DX2 analytically  !
 ! R52   R(34,41)                1.0939         calculate D2E/DX2 analytically  !
 ! R53   R(34,42)                1.0966         calculate D2E/DX2 analytically  !
 ! R54   R(34,43)                1.0959         calculate D2E/DX2 analytically  !
 ! A1    A(2,1,3)              119.9506         calculate D2E/DX2 analytically  !
 ! A2    A(2,1,13)             120.2078         calculate D2E/DX2 analytically  !
 ! A3    A(3,1,13)             119.8416         calculate D2E/DX2 analytically  !
 ! A4    A(1,2,6)              120.272          calculate D2E/DX2 analytically  !
 ! A5    A(1,2,14)             119.8345         calculate D2E/DX2 analytically  !
 ! A6    A(6,2,14)             119.8935         calculate D2E/DX2 analytically  !
 ! A7    A(1,3,4)              119.7619         calculate D2E/DX2 analytically  !
 ! A8    A(1,3,17)             120.7444         calculate D2E/DX2 analytically  !
 ! A9    A(4,3,17)             119.4924         calculate D2E/DX2 analytically  !
 ! A10   A(3,4,5)              120.2799         calculate D2E/DX2 analytically  !
 ! A11   A(3,4,23)             116.3676         calculate D2E/DX2 analytically  !
 ! A12   A(5,4,23)             123.3524         calculate D2E/DX2 analytically  !
 ! A13   A(4,5,6)              119.6171         calculate D2E/DX2 analytically  !
 ! A14   A(4,5,15)             120.4951         calculate D2E/DX2 analytically  !
 ! A15   A(6,5,15)             119.8879         calculate D2E/DX2 analytically  !
 ! A16   A(2,6,5)              120.1161         calculate D2E/DX2 analytically  !
 ! A17   A(2,6,16)             120.2975         calculate D2E/DX2 analytically  !
 ! A18   A(5,6,16)             119.5863         calculate D2E/DX2 analytically  !
 ! A19   A(8,7,12)             119.7521         calculate D2E/DX2 analytically  !
 ! A20   A(7,8,9)              121.563          calculate D2E/DX2 analytically  !
 ! A21   A(7,8,18)             117.457          calculate D2E/DX2 analytically  !
 ! A22   A(9,8,18)             120.9657         calculate D2E/DX2 analytically  !
 ! A23   A(8,9,10)             119.7522         calculate D2E/DX2 analytically  !
 ! A24   A(8,9,19)             120.723          calculate D2E/DX2 analytically  !
 ! A25   A(10,9,19)            119.5248         calculate D2E/DX2 analytically  !
 ! A26   A(9,10,11)            117.6117         calculate D2E/DX2 analytically  !
 ! A27   A(9,10,21)            121.1143         calculate D2E/DX2 analytically  !
 ! A28   A(11,10,21)           121.2593         calculate D2E/DX2 analytically  !
 ! A29   A(10,11,12)           119.7486         calculate D2E/DX2 analytically  !
 ! A30   A(10,11,22)           119.7338         calculate D2E/DX2 analytically  !
 ! A31   A(12,11,22)           120.5163         calculate D2E/DX2 analytically  !
 ! A32   A(7,12,11)            121.5619         calculate D2E/DX2 analytically  !
 ! A33   A(7,12,20)            117.9263         calculate D2E/DX2 analytically  !
 ! A34   A(11,12,20)           120.5091         calculate D2E/DX2 analytically  !
 ! A35   A(5,15,36)             92.6442         calculate D2E/DX2 analytically  !
 ! A36   A(36,15,43)            63.788          calculate D2E/DX2 analytically  !
 ! A37   A(8,18,32)            108.5713         calculate D2E/DX2 analytically  !
 ! A38   A(8,18,33)            110.4209         calculate D2E/DX2 analytically  !
 ! A39   A(8,18,34)            110.8509         calculate D2E/DX2 analytically  !
 ! A40   A(32,18,33)           109.1648         calculate D2E/DX2 analytically  !
 ! A41   A(32,18,34)           109.0229         calculate D2E/DX2 analytically  !
 ! A42   A(33,18,34)           108.7799         calculate D2E/DX2 analytically  !
 ! A43   A(12,20,29)           108.9898         calculate D2E/DX2 analytically  !
 ! A44   A(12,20,30)           111.2767         calculate D2E/DX2 analytically  !
 ! A45   A(12,20,31)           109.6296         calculate D2E/DX2 analytically  !
 ! A46   A(29,20,30)           108.9599         calculate D2E/DX2 analytically  !
 ! A47   A(29,20,31)           109.1904         calculate D2E/DX2 analytically  !
 ! A48   A(30,20,31)           108.7645         calculate D2E/DX2 analytically  !
 ! A49   A(10,21,26)           111.195          calculate D2E/DX2 analytically  !
 ! A50   A(10,21,27)           111.268          calculate D2E/DX2 analytically  !
 ! A51   A(10,21,28)           110.2525         calculate D2E/DX2 analytically  !
 ! A52   A(26,21,27)           108.6554         calculate D2E/DX2 analytically  !
 ! A53   A(26,21,28)           107.6821         calculate D2E/DX2 analytically  !
 ! A54   A(27,21,28)           107.6492         calculate D2E/DX2 analytically  !
 ! A55   A(4,23,24)            125.815          calculate D2E/DX2 analytically  !
 ! A56   A(4,23,25)            115.7734         calculate D2E/DX2 analytically  !
 ! A57   A(24,23,25)           118.4035         calculate D2E/DX2 analytically  !
 ! A58   A(20,29,50)           110.9856         calculate D2E/DX2 analytically  !
 ! A59   A(20,29,51)           110.0718         calculate D2E/DX2 analytically  !
 ! A60   A(20,29,52)           111.6157         calculate D2E/DX2 analytically  !
 ! A61   A(50,29,51)           108.0839         calculate D2E/DX2 analytically  !
 ! A62   A(50,29,52)           108.1247         calculate D2E/DX2 analytically  !
 ! A63   A(51,29,52)           107.8307         calculate D2E/DX2 analytically  !
 ! A64   A(20,30,47)           111.5874         calculate D2E/DX2 analytically  !
 ! A65   A(20,30,48)           111.4434         calculate D2E/DX2 analytically  !
 ! A66   A(20,30,49)           109.3516         calculate D2E/DX2 analytically  !
 ! A67   A(47,30,48)           107.595          calculate D2E/DX2 analytically  !
 ! A68   A(47,30,49)           108.3901         calculate D2E/DX2 analytically  !
 ! A69   A(48,30,49)           108.367          calculate D2E/DX2 analytically  !
 ! A70   A(20,31,44)           111.98           calculate D2E/DX2 analytically  !
 ! A71   A(20,31,45)           109.8896         calculate D2E/DX2 analytically  !
 ! A72   A(20,31,46)           111.0467         calculate D2E/DX2 analytically  !
 ! A73   A(44,31,45)           107.7626         calculate D2E/DX2 analytically  !
 ! A74   A(44,31,46)           107.9527         calculate D2E/DX2 analytically  !
 ! A75   A(45,31,46)           108.0667         calculate D2E/DX2 analytically  !
 ! A76   A(18,32,38)           111.3094         calculate D2E/DX2 analytically  !
 ! A77   A(18,32,39)           110.214          calculate D2E/DX2 analytically  !
 ! A78   A(18,32,40)           110.8495         calculate D2E/DX2 analytically  !
 ! A79   A(38,32,39)           108.0625         calculate D2E/DX2 analytically  !
 ! A80   A(38,32,40)           108.1089         calculate D2E/DX2 analytically  !
 ! A81   A(39,32,40)           108.1865         calculate D2E/DX2 analytically  !
 ! A82   A(18,33,35)           112.2336         calculate D2E/DX2 analytically  !
 ! A83   A(18,33,36)           111.1468         calculate D2E/DX2 analytically  !
 ! A84   A(18,33,37)           109.894          calculate D2E/DX2 analytically  !
 ! A85   A(35,33,36)           107.9625         calculate D2E/DX2 analytically  !
 ! A86   A(35,33,37)           107.4152         calculate D2E/DX2 analytically  !
 ! A87   A(36,33,37)           108.0227         calculate D2E/DX2 analytically  !
 ! A88   A(18,34,41)           111.621          calculate D2E/DX2 analytically  !
 ! A89   A(18,34,42)           109.5157         calculate D2E/DX2 analytically  !
 ! A90   A(18,34,43)           111.1923         calculate D2E/DX2 analytically  !
 ! A91   A(41,34,42)           108.4545         calculate D2E/DX2 analytically  !
 ! A92   A(41,34,43)           107.3501         calculate D2E/DX2 analytically  !
 ! A93   A(42,34,43)           108.6092         calculate D2E/DX2 analytically  !
 ! A94   A(15,36,33)           129.1101         calculate D2E/DX2 analytically  !
 ! A95   A(15,43,34)           138.3975         calculate D2E/DX2 analytically  !
 ! A96   L(5,15,43,36,-1)      156.4322         calculate D2E/DX2 analytically  !
 ! A97   L(5,15,43,36,-2)      190.8872         calculate D2E/DX2 analytically  !
 ! D1    D(3,1,2,6)              0.0509         calculate D2E/DX2 analytically  !
 ! D2    D(3,1,2,14)          -179.9196         calculate D2E/DX2 analytically  !
 ! D3    D(13,1,2,6)          -179.9719         calculate D2E/DX2 analytically  !
 ! D4    D(13,1,2,14)            0.0577         calculate D2E/DX2 analytically  !
 ! D5    D(2,1,3,4)              0.3928         calculate D2E/DX2 analytically  !
 ! D6    D(2,1,3,17)           179.9713         calculate D2E/DX2 analytically  !
 ! D7    D(13,1,3,4)          -179.5845         calculate D2E/DX2 analytically  !
 ! D8    D(13,1,3,17)           -0.006          calculate D2E/DX2 analytically  !
 ! D9    D(1,2,6,5)             -0.3056         calculate D2E/DX2 analytically  !
 ! D10   D(1,2,6,16)           179.8465         calculate D2E/DX2 analytically  !
 ! D11   D(14,2,6,5)           179.6648         calculate D2E/DX2 analytically  !
 ! D12   D(14,2,6,16)           -0.183          calculate D2E/DX2 analytically  !
 ! D13   D(1,3,4,5)             -0.587          calculate D2E/DX2 analytically  !
 ! D14   D(1,3,4,23)           179.4692         calculate D2E/DX2 analytically  !
 ! D15   D(17,3,4,5)           179.8292         calculate D2E/DX2 analytically  !
 ! D16   D(17,3,4,23)           -0.1146         calculate D2E/DX2 analytically  !
 ! D17   D(3,4,5,6)              0.3336         calculate D2E/DX2 analytically  !
 ! D18   D(3,4,5,15)          -179.6345         calculate D2E/DX2 analytically  !
 ! D19   D(23,4,5,6)          -179.7267         calculate D2E/DX2 analytically  !
 ! D20   D(23,4,5,15)            0.3052         calculate D2E/DX2 analytically  !
 ! D21   D(3,4,23,24)            7.3431         calculate D2E/DX2 analytically  !
 ! D22   D(3,4,23,25)         -171.5946         calculate D2E/DX2 analytically  !
 ! D23   D(5,4,23,24)         -172.5987         calculate D2E/DX2 analytically  !
 ! D24   D(5,4,23,25)            8.4636         calculate D2E/DX2 analytically  !
 ! D25   D(4,5,6,2)              0.112          calculate D2E/DX2 analytically  !
 ! D26   D(4,5,6,16)           179.9609         calculate D2E/DX2 analytically  !
 ! D27   D(15,5,6,2)          -179.9197         calculate D2E/DX2 analytically  !
 ! D28   D(15,5,6,16)           -0.0708         calculate D2E/DX2 analytically  !
 ! D29   D(4,5,15,36)          -76.0941         calculate D2E/DX2 analytically  !
 ! D30   D(6,5,15,36)          103.9379         calculate D2E/DX2 analytically  !
 ! D31   D(4,5,43,34)         -108.7925         calculate D2E/DX2 analytically  !
 ! D32   D(6,5,43,34)           51.4007         calculate D2E/DX2 analytically  !
 ! D33   D(12,7,8,9)             0.9135         calculate D2E/DX2 analytically  !
 ! D34   D(12,7,8,18)          179.5501         calculate D2E/DX2 analytically  !
 ! D35   D(8,7,12,11)           -0.0169         calculate D2E/DX2 analytically  !
 ! D36   D(8,7,12,20)         -179.428          calculate D2E/DX2 analytically  !
 ! D37   D(7,8,9,10)            -1.1796         calculate D2E/DX2 analytically  !
 ! D38   D(7,8,9,19)           178.8076         calculate D2E/DX2 analytically  !
 ! D39   D(18,8,9,10)         -179.7686         calculate D2E/DX2 analytically  !
 ! D40   D(18,8,9,19)            0.2185         calculate D2E/DX2 analytically  !
 ! D41   D(7,8,18,32)         -106.074          calculate D2E/DX2 analytically  !
 ! D42   D(7,8,18,33)          134.2804         calculate D2E/DX2 analytically  !
 ! D43   D(7,8,18,34)           13.6562         calculate D2E/DX2 analytically  !
 ! D44   D(9,8,18,32)           72.5712         calculate D2E/DX2 analytically  !
 ! D45   D(9,8,18,33)          -47.0744         calculate D2E/DX2 analytically  !
 ! D46   D(9,8,18,34)         -167.6986         calculate D2E/DX2 analytically  !
 ! D47   D(8,9,10,11)            0.5279         calculate D2E/DX2 analytically  !
 ! D48   D(8,9,10,21)         -178.093          calculate D2E/DX2 analytically  !
 ! D49   D(19,9,10,11)        -179.4594         calculate D2E/DX2 analytically  !
 ! D50   D(19,9,10,21)           1.9197         calculate D2E/DX2 analytically  !
 ! D51   D(9,10,11,12)           0.3261         calculate D2E/DX2 analytically  !
 ! D52   D(9,10,11,22)         179.9074         calculate D2E/DX2 analytically  !
 ! D53   D(21,10,11,12)        178.945          calculate D2E/DX2 analytically  !
 ! D54   D(21,10,11,22)         -1.4738         calculate D2E/DX2 analytically  !
 ! D55   D(9,10,21,26)         -30.519          calculate D2E/DX2 analytically  !
 ! D56   D(9,10,21,27)        -151.7905         calculate D2E/DX2 analytically  !
 ! D57   D(9,10,21,28)          88.8424         calculate D2E/DX2 analytically  !
 ! D58   D(11,10,21,26)        150.9106         calculate D2E/DX2 analytically  !
 ! D59   D(11,10,21,27)         29.6391         calculate D2E/DX2 analytically  !
 ! D60   D(11,10,21,28)        -89.728          calculate D2E/DX2 analytically  !
 ! D61   D(10,11,12,7)          -0.6079         calculate D2E/DX2 analytically  !
 ! D62   D(10,11,12,20)        178.7881         calculate D2E/DX2 analytically  !
 ! D63   D(22,11,12,7)         179.8142         calculate D2E/DX2 analytically  !
 ! D64   D(22,11,12,20)         -0.7898         calculate D2E/DX2 analytically  !
 ! D65   D(7,12,20,29)         117.5408         calculate D2E/DX2 analytically  !
 ! D66   D(7,12,20,30)          -2.6413         calculate D2E/DX2 analytically  !
 ! D67   D(7,12,20,31)        -122.9992         calculate D2E/DX2 analytically  !
 ! D68   D(11,12,20,29)        -61.8767         calculate D2E/DX2 analytically  !
 ! D69   D(11,12,20,30)        177.9412         calculate D2E/DX2 analytically  !
 ! D70   D(11,12,20,31)         57.5833         calculate D2E/DX2 analytically  !
 ! D71   D(5,15,36,33)        -127.7864         calculate D2E/DX2 analytically  !
 ! D72   D(43,15,36,33)         41.3264         calculate D2E/DX2 analytically  !
 ! D73   D(36,15,43,34)        -49.1991         calculate D2E/DX2 analytically  !
 ! D74   D(8,18,32,38)         -60.6736         calculate D2E/DX2 analytically  !
 ! D75   D(8,18,32,39)         179.4402         calculate D2E/DX2 analytically  !
 ! D76   D(8,18,32,40)          59.6957         calculate D2E/DX2 analytically  !
 ! D77   D(33,18,32,38)         59.7539         calculate D2E/DX2 analytically  !
 ! D78   D(33,18,32,39)        -60.1323         calculate D2E/DX2 analytically  !
 ! D79   D(33,18,32,40)       -179.8768         calculate D2E/DX2 analytically  !
 ! D80   D(34,18,32,38)        178.4613         calculate D2E/DX2 analytically  !
 ! D81   D(34,18,32,39)         58.5751         calculate D2E/DX2 analytically  !
 ! D82   D(34,18,32,40)        -61.1694         calculate D2E/DX2 analytically  !
 ! D83   D(8,18,33,35)          65.0471         calculate D2E/DX2 analytically  !
 ! D84   D(8,18,33,36)         -55.9729         calculate D2E/DX2 analytically  !
 ! D85   D(8,18,33,37)        -175.4952         calculate D2E/DX2 analytically  !
 ! D86   D(32,18,33,35)        -54.2395         calculate D2E/DX2 analytically  !
 ! D87   D(32,18,33,36)       -175.2596         calculate D2E/DX2 analytically  !
 ! D88   D(32,18,33,37)         65.2182         calculate D2E/DX2 analytically  !
 ! D89   D(34,18,33,35)       -173.0984         calculate D2E/DX2 analytically  !
 ! D90   D(34,18,33,36)         65.8816         calculate D2E/DX2 analytically  !
 ! D91   D(34,18,33,37)        -53.6406         calculate D2E/DX2 analytically  !
 ! D92   D(8,18,34,41)         -63.2833         calculate D2E/DX2 analytically  !
 ! D93   D(8,18,34,42)         176.6015         calculate D2E/DX2 analytically  !
 ! D94   D(8,18,34,43)          56.566          calculate D2E/DX2 analytically  !
 ! D95   D(32,18,34,41)         56.1763         calculate D2E/DX2 analytically  !
 ! D96   D(32,18,34,42)        -63.9389         calculate D2E/DX2 analytically  !
 ! D97   D(32,18,34,43)        176.0256         calculate D2E/DX2 analytically  !
 ! D98   D(33,18,34,41)        175.1241         calculate D2E/DX2 analytically  !
 ! D99   D(33,18,34,42)         55.0089         calculate D2E/DX2 analytically  !
 ! D100  D(33,18,34,43)        -65.0266         calculate D2E/DX2 analytically  !
 ! D101  D(12,20,29,50)        -59.4355         calculate D2E/DX2 analytically  !
 ! D102  D(12,20,29,51)       -179.0468         calculate D2E/DX2 analytically  !
 ! D103  D(12,20,29,52)         61.2537         calculate D2E/DX2 analytically  !
 ! D104  D(30,20,29,50)         62.1652         calculate D2E/DX2 analytically  !
 ! D105  D(30,20,29,51)        -57.4461         calculate D2E/DX2 analytically  !
 ! D106  D(30,20,29,52)       -177.1456         calculate D2E/DX2 analytically  !
 ! D107  D(31,20,29,50)       -179.1679         calculate D2E/DX2 analytically  !
 ! D108  D(31,20,29,51)         61.2207         calculate D2E/DX2 analytically  !
 ! D109  D(31,20,29,52)        -58.4788         calculate D2E/DX2 analytically  !
 ! D110  D(12,20,30,47)         61.2652         calculate D2E/DX2 analytically  !
 ! D111  D(12,20,30,48)        -59.0445         calculate D2E/DX2 analytically  !
 ! D112  D(12,20,30,49)       -178.8298         calculate D2E/DX2 analytically  !
 ! D113  D(29,20,30,47)        -58.9346         calculate D2E/DX2 analytically  !
 ! D114  D(29,20,30,48)       -179.2443         calculate D2E/DX2 analytically  !
 ! D115  D(29,20,30,49)         60.9704         calculate D2E/DX2 analytically  !
 ! D116  D(31,20,30,47)       -177.8678         calculate D2E/DX2 analytically  !
 ! D117  D(31,20,30,48)         61.8224         calculate D2E/DX2 analytically  !
 ! D118  D(31,20,30,49)        -57.9628         calculate D2E/DX2 analytically  !
 ! D119  D(12,20,31,44)        -60.5427         calculate D2E/DX2 analytically  !
 ! D120  D(12,20,31,45)        179.7294         calculate D2E/DX2 analytically  !
 ! D121  D(12,20,31,46)         60.2187         calculate D2E/DX2 analytically  !
 ! D122  D(29,20,31,44)         58.7941         calculate D2E/DX2 analytically  !
 ! D123  D(29,20,31,45)        -60.9338         calculate D2E/DX2 analytically  !
 ! D124  D(29,20,31,46)        179.5555         calculate D2E/DX2 analytically  !
 ! D125  D(30,20,31,44)        177.5828         calculate D2E/DX2 analytically  !
 ! D126  D(30,20,31,45)         57.8549         calculate D2E/DX2 analytically  !
 ! D127  D(30,20,31,46)        -61.6559         calculate D2E/DX2 analytically  !
 ! D128  D(18,33,36,15)        -63.9067         calculate D2E/DX2 analytically  !
 ! D129  D(35,33,36,15)        172.5963         calculate D2E/DX2 analytically  !
 ! D130  D(37,33,36,15)         56.7255         calculate D2E/DX2 analytically  !
 ! D131  D(18,34,43,15)         74.749          calculate D2E/DX2 analytically  !
 ! D132  D(41,34,43,15)       -162.8961         calculate D2E/DX2 analytically  !
 ! D133  D(42,34,43,15)        -45.8225         calculate D2E/DX2 analytically  !
 --------------------------------------------------------------------------------
 Trust Radius=3.00D-01 FncErr=1.00D-07 GrdErr=1.00D-07
 Number of steps in this run=      2 maximum allowed number of steps=      2.
 GradGradGradGradGradGradGradGradGradGradGradGradGradGradGradGradGradGrad

 Leave Link  103 at Tue May  8 16:15:47 2018, MaxMem=  1073741824 cpu:         0.1
 (Enter /ihome/crc/build/g09/g09-D.01/TAR/g09/l202.exe)
 Stoichiometry    C21H28ClNO
 Framework group  C1[X(C21H28ClNO)]
 Deg. of freedom   150
 Full point group                 C1      NOp   1
 RotChk:  IX=0 Diff= 1.61D-15
 Largest Abelian subgroup         C1      NOp   1
 Largest concise Abelian subgroup C1      NOp   1
                         Standard orientation:                         
 ---------------------------------------------------------------------
 Center     Atomic      Atomic             Coordinates (Angstroms)
 Number     Number       Type             X           Y           Z
 ---------------------------------------------------------------------
      1          6           0       -5.798466   -0.429404    0.307992
      2          6           0       -5.676841    0.512528   -0.715879
      3          6           0       -4.693847   -1.177498    0.697379
      4          6           0       -3.458826   -0.976344    0.064583
      5          6           0       -3.338125   -0.035971   -0.963380
      6          6           0       -4.450491    0.705787   -1.351386
      7          7           0        1.938754    0.627017   -0.575304
      8          6           0        1.325625    1.414582    0.318133
      9          6           0        1.564439    1.289354    1.688517
     10          6           0        2.442199    0.308182    2.151745
     11          6           0        3.057872   -0.507352    1.203907
     12          6           0        2.788352   -0.317163   -0.155332
     13          1           0       -6.753843   -0.579335    0.801742
     14          1           0       -6.541232    1.097207   -1.017865
     15          1           0       -2.385898    0.118258   -1.459249
     16          1           0       -4.356055    1.436274   -2.149191
     17          1           0       -4.773727   -1.912861    1.492088
     18          6           0        0.372300    2.484358   -0.220767
     19          1           0        1.073925    1.948522    2.400240
     20          6           0        3.475959   -1.184654   -1.212806
     21          6           0        2.689451    0.118217    3.624391
     22          1           0        3.749315   -1.282124    1.526600
     23          6           0       -2.328205   -1.806348    0.547505
     24          8           0       -2.405221   -2.703741    1.329785
     25         17           0       -0.709891   -1.376813   -0.103635
     26          1           0        2.586800    1.062296    4.167741
     27          1           0        3.689113   -0.285512    3.810091
     28          1           0        1.962695   -0.587835    4.043284
     29          6           0        4.995192   -0.957373   -1.135938
     30          6           0        2.991056   -0.832366   -2.621149
     31          6           0        3.172427   -2.667138   -0.941680
     32          6           0        1.052376    3.857932   -0.088976
     33          6           0       -0.937347    2.490343    0.584186
     34          6           0        0.043933    2.229312   -1.694647
     35          1           0       -0.781657    2.787593    1.626644
     36          1           0       -1.407604    1.500222    0.581626
     37          1           0       -1.644052    3.202769    0.141771
     38          1           0        1.279901    4.090989    0.957647
     39          1           0        0.394715    4.645404   -0.477615
     40          1           0        1.990387    3.884887   -0.655762
     41          1           0        0.935513    2.300506   -2.324388
     42          1           0       -0.685860    2.970958   -2.041040
     43          1           0       -0.379021    1.228614   -1.838896
     44          1           0        3.537405   -2.987433    0.040099
     45          1           0        3.659184   -3.292354   -1.699851
     46          1           0        2.094365   -2.861936   -0.981426
     47          1           0        3.218938    0.207356   -2.877284
     48          1           0        1.908270   -0.967404   -2.717332
     49          1           0        3.486703   -1.484789   -3.349892
     50          1           0        5.243961    0.095994   -1.310717
     51          1           0        5.504845   -1.558668   -1.898694
     52          1           0        5.397359   -1.244873   -0.158116
 ---------------------------------------------------------------------
 Rotational constants (GHZ):      0.3159352      0.1302770      0.1201445
 Leave Link  202 at Tue May  8 16:15:47 2018, MaxMem=  1073741824 cpu:         0.0
 (Enter /ihome/crc/build/g09/g09-D.01/TAR/g09/l301.exe)
 Standard basis: 6-311+G(d,p) (5D, 7F)
 Ernie: Thresh=  0.10000D-02 Tol=  0.10000D-05 Strict=F.
 There are   728 symmetry adapted cartesian basis functions of A   symmetry.
 There are   704 symmetry adapted basis functions of A   symmetry.
   704 basis functions,  1105 primitive gaussians,   728 cartesian basis functions
    93 alpha electrons       93 beta electrons
       nuclear repulsion energy      2244.9433462545 Hartrees.
 IExCor= 4336 DFT=T Ex+Corr=M062X ExCW=0 ScaHFX=  0.540000
 ScaDFX=  1.000000  1.000000  1.000000  1.000000 ScalE2=  1.000000  1.000000
 IRadAn=      0 IRanWt=     -1 IRanGd=            0 ICorTp=0 IEmpDi=  4
 NAtoms=   52 NActive=   52 NUniq=   52 SFac= 1.00D+00 NAtFMM=   60 NAOKFM=F Big=F
 Integral buffers will be    131072 words long.
 Raffenetti 2 integral format.
 Two-electron integral symmetry is turned on.
 Force inversion solution in PCM.
 ------------------------------------------------------------------------------
 Polarizable Continuum Model (PCM)
 =================================
 Model                : PCM (using non-symmetric T matrix).
 Atomic radii         : SMD-Coulomb.
 Polarization charges : Total charges.
 Charge compensation  : None.
 Solution method      : Matrix inversion.
 Cavity type          : VdW (van der Waals Surface) (Alpha=1.000).
 Cavity algorithm     : GePol (No added spheres)
                        Default sphere list used, NSphG=   52.
                        Lebedev-Laikov grids with approx.  5.0 points / Ang**2.
                        Smoothing algorithm: Karplus/York (Gamma=1.0000).
                        Polarization charges: spherical gaussians, with
                                              point-specific exponents (IZeta= 3).
                        Self-potential: point-specific (ISelfS= 7).
                        Self-field    : sphere-specific E.n sum rule (ISelfD= 2).
 1st derivatives      : Analytical E(r).r(x)/FMM algorithm (CHGder, D1EAlg=3).
                        Cavity 1st derivative terms included.
 2nd derivatives      : Analytical E(r).r(xy)/FMM algorithm (CHGder, D2EAlg=3).
                        Cavity 2nd derivative terms included.
 Solvent              : Chloroform, Eps=   4.711300 Eps(inf)=   2.090627
 ------------------------------------------------------------------------------
 GePol: Number of generator spheres                  =      52
 GePol: Total number of spheres                      =      52
 GePol: Number of exposed spheres                    =      52 (100.00%)
 GePol: Number of points                             =    3732
 GePol: Average weight of points                     =       0.11
 GePol: Minimum weight of points                     =   0.47D-10
 GePol: Maximum weight of points                     =    0.18790
 GePol: Number of points with low weight             =     227
 GePol: Fraction of low-weight points (<1% of avg)   =       6.08%
 GePol: Cavity surface area                          =    418.356 Ang**2
 GePol: Cavity volume                                =    405.093 Ang**3
 ------------------------------------------------------------------------------
 Atomic radii for non-electrostatic terms: SMD-CDS.
 ------------------------------------------------------------------------------
 PCM non-electrostatic energy =        -0.0116209556 Hartrees.
 Nuclear repulsion after PCM non-electrostatic terms =     2244.9317252989 Hartrees.
 Leave Link  301 at Tue May  8 16:15:47 2018, MaxMem=  1073741824 cpu:         0.4
 (Enter /ihome/crc/build/g09/g09-D.01/TAR/g09/l302.exe)
 NPDir=0 NMtPBC=     1 NCelOv=     1 NCel=       1 NClECP=     1 NCelD=      1
         NCelK=      1 NCelE2=     1 NClLst=     1 CellRange=     0.0.
 One-electron integrals computed using PRISM.
 NBasis=   704 RedAO= T EigKep=  1.37D-06  NBF=   704
 NBsUse=   702 1.00D-06 EigRej=  6.87D-07 NBFU=   702
 Precomputing XC quadrature grid using
 IXCGrd= 4 IRadAn=           0 IRanWt=          -1 IRanGd=           0 AccXCQ= 0.00D+00.
 Generated NRdTot=       0 NPtTot=           0 NUsed=           0 NTot=          32
 NSgBfM=   715   715   715   715   715 MxSgAt=    52 MxSgA2=    52.
 Leave Link  302 at Tue May  8 16:15:48 2018, MaxMem=  1073741824 cpu:         7.6
 (Enter /ihome/crc/build/g09/g09-D.01/TAR/g09/l303.exe)
 DipDrv:  MaxL=1.
 Leave Link  303 at Tue May  8 16:15:48 2018, MaxMem=  1073741824 cpu:         0.6
 (Enter /ihome/crc/build/g09/g09-D.01/TAR/g09/l401.exe)
 ExpMin= 4.38D-02 ExpMax= 1.06D+05 ExpMxC= 3.62D+03 IAcc=2 IRadAn=         4 AccDes= 0.00D+00
 Harris functional with IExCor= 1009 and IRadAn=       4 diagonalized for initial guess.
 HarFok:  IExCor= 1009 AccDes= 0.00D+00 IRadAn=         4 IDoV= 1 UseB2=F ITyADJ=14
 ICtDFT=  3500011 ScaDFX=  1.000000  1.000000  1.000000  1.000000
 FoFCou: FMM=F IPFlag=           0 FMFlag=      100000 FMFlg1=           0
         NFxFlg=           0 DoJE=T BraDBF=F KetDBF=T FulRan=T
         wScrn=  0.000000 ICntrl=     500 IOpCl=  0 I1Cent=   200000004 NGrid=           0
         NMat0=    1 NMatS0=      1 NMatT0=    0 NMatD0=    1 NMtDS0=    0 NMtDT0=    0
 Petite list used in FoFCou.
 Harris En= -1406.58523768868    
 JPrj=0 DoOrth=F DoCkMO=F.
 Leave Link  401 at Tue May  8 16:15:51 2018, MaxMem=  1073741824 cpu:        27.8
 (Enter /ihome/crc/build/g09/g09-D.01/TAR/g09/l502.exe)
 Closed shell SCF:
 Using DIIS extrapolation, IDIIS=  1040.
 Integral symmetry usage will be decided dynamically.
 IVT=     1619765 IEndB=     1619765 NGot=  1073741824 MDV=  1072669412
 LenX=  1072669412 LenY=  1072138700
 Requested convergence on RMS density matrix=1.00D-08 within 128 cycles.
 Requested convergence on MAX density matrix=1.00D-06.
 Requested convergence on             energy=1.00D-06.
 No special actions if energy rises.
 Fock matrices will be formed incrementally for  20 cycles.

 Cycle   1  Pass 1  IDiag  1:
 FoFJK:  IHMeth= 1 ICntrl=       0 DoSepK=F KAlg= 0 I1Cent=   0 FoldK=F
 IRaf= 750000000 NMat=   1 IRICut=       1 DoRegI=T DoRafI=F ISym2E= 0.
 FoFCou: FMM=F IPFlag=           0 FMFlag=      100000 FMFlg1=           0
         NFxFlg=           0 DoJE=F BraDBF=F KetDBF=F FulRan=T
         wScrn=  0.000000 ICntrl=       0 IOpCl=  0 I1Cent=           0 NGrid=           0
         NMat0=    1 NMatS0=      1 NMatT0=    0 NMatD0=    1 NMtDS0=    0 NMtDT0=    0
 Symmetry not used in FoFCou.
 Inv3:  Mode=1 IEnd=    41783472.
 Iteration    1 A*A^-1 deviation from unit magnitude is 9.66D-15 for   3310.
 Iteration    1 A*A^-1 deviation from orthogonality  is 9.11D-15 for   3180   1733.
 Iteration    1 A^-1*A deviation from unit magnitude is 1.09D-14 for   2883.
 Iteration    1 A^-1*A deviation from orthogonality  is 5.87D-12 for   3269   1491.
 E= -1406.37262915505    
 DIIS: error= 2.92D-02 at cycle   1 NSaved=   1.
 NSaved= 1 IEnMin= 1 EnMin= -1406.37262915505     IErMin= 1 ErrMin= 2.92D-02
 ErrMax= 2.92D-02  0.00D+00 EMaxC= 1.00D-01 BMatC= 9.41D-01 BMatP= 9.41D-01
 IDIUse=3 WtCom= 7.08D-01 WtEn= 2.92D-01
 Coeff-Com:  0.100D+01
 Coeff-En:   0.100D+01
 Coeff:      0.100D+01
 Gap=     0.486 Goal=   None    Shift=    0.000
 GapD=    0.486 DampG=2.000 DampE=0.500 DampFc=1.0000 IDamp=-1.
 RMSDP=1.67D-02 MaxDP=1.91D+00              OVMax= 2.21D-01

 Cycle   2  Pass 1  IDiag  1:
 RMSU=  1.51D-02    CP:  8.52D-01
 E= -1406.50815349256     Delta-E=       -0.135524337512 Rises=F Damp=F
 DIIS: error= 4.81D-02 at cycle   2 NSaved=   2.
 NSaved= 2 IEnMin= 2 EnMin= -1406.50815349256     IErMin= 1 ErrMin= 2.92D-02
 ErrMax= 4.81D-02  0.00D+00 EMaxC= 1.00D-01 BMatC= 7.10D-01 BMatP= 9.41D-01
 IDIUse=3 WtCom= 5.19D-01 WtEn= 4.81D-01
 Coeff-Com:  0.461D+00 0.539D+00
 Coeff-En:   0.447D+00 0.553D+00
 Coeff:      0.454D+00 0.546D+00
 Gap=     0.245 Goal=   None    Shift=    0.000
 RMSDP=9.84D-03 MaxDP=9.01D-01 DE=-1.36D-01 OVMax= 1.99D-01

 Cycle   3  Pass 1  IDiag  1:
 RMSU=  6.58D-03    CP:  8.05D-01  5.39D-01
 E= -1407.11136313015     Delta-E=       -0.603209637593 Rises=F Damp=F
 DIIS: error= 2.03D-02 at cycle   3 NSaved=   3.
 NSaved= 3 IEnMin= 3 EnMin= -1407.11136313015     IErMin= 3 ErrMin= 2.03D-02
 ErrMax= 2.03D-02  0.00D+00 EMaxC= 1.00D-01 BMatC= 6.19D-02 BMatP= 7.10D-01
 IDIUse=3 WtCom= 7.97D-01 WtEn= 2.03D-01
 Coeff-Com:  0.154D+00 0.271D+00 0.576D+00
 Coeff-En:   0.000D+00 0.000D+00 0.100D+01
 Coeff:      0.122D+00 0.216D+00 0.662D+00
 Gap=     0.243 Goal=   None    Shift=    0.000
 RMSDP=3.50D-03 MaxDP=4.60D-01 DE=-6.03D-01 OVMax= 6.23D-02

 Cycle   4  Pass 1  IDiag  1:
 RMSU=  2.90D-03    CP:  8.22D-01  6.53D-01  9.24D-01
 E= -1407.14177884364     Delta-E=       -0.030415713487 Rises=F Damp=F
 DIIS: error= 1.10D-02 at cycle   4 NSaved=   4.
 NSaved= 4 IEnMin= 4 EnMin= -1407.14177884364     IErMin= 4 ErrMin= 1.10D-02
 ErrMax= 1.10D-02  0.00D+00 EMaxC= 1.00D-01 BMatC= 1.97D-02 BMatP= 6.19D-02
 IDIUse=3 WtCom= 8.90D-01 WtEn= 1.10D-01
 Coeff-Com:  0.276D-02 0.372D-01 0.388D+00 0.572D+00
 Coeff-En:   0.000D+00 0.000D+00 0.260D+00 0.740D+00
 Coeff:      0.246D-02 0.331D-01 0.374D+00 0.591D+00
 Gap=     0.242 Goal=   None    Shift=    0.000
 RMSDP=2.03D-03 MaxDP=2.72D-01 DE=-3.04D-02 OVMax= 3.29D-02

 Cycle   5  Pass 1  IDiag  1:
 RMSU=  5.49D-04    CP:  7.91D-01  6.15D-01  9.73D-01  6.45D-01
 E= -1407.15571167670     Delta-E=       -0.013932833062 Rises=F Damp=F
 DIIS: error= 8.07D-04 at cycle   5 NSaved=   5.
 NSaved= 5 IEnMin= 5 EnMin= -1407.15571167670     IErMin= 5 ErrMin= 8.07D-04
 ErrMax= 8.07D-04  0.00D+00 EMaxC= 1.00D-01 BMatC= 2.58D-04 BMatP= 1.97D-02
 IDIUse=3 WtCom= 9.92D-01 WtEn= 8.07D-03
 Coeff-Com: -0.384D-02 0.781D-03 0.899D-01 0.205D+00 0.708D+00
 Coeff-En:   0.000D+00 0.000D+00 0.000D+00 0.000D+00 0.100D+01
 Coeff:     -0.380D-02 0.775D-03 0.892D-01 0.203D+00 0.711D+00
 Gap=     0.241 Goal=   None    Shift=    0.000
 RMSDP=2.76D-04 MaxDP=2.91D-02 DE=-1.39D-02 OVMax= 3.40D-03

 Cycle   6  Pass 1  IDiag  1:
 RMSU=  2.01D-04    CP:  7.92D-01  6.18D-01  9.85D-01  6.95D-01  1.06D+00
 E= -1407.15593304533     Delta-E=       -0.000221368628 Rises=F Damp=F
 DIIS: error= 1.89D-04 at cycle   6 NSaved=   6.
 NSaved= 6 IEnMin= 6 EnMin= -1407.15593304533     IErMin= 6 ErrMin= 1.89D-04
 ErrMax= 1.89D-04  0.00D+00 EMaxC= 1.00D-01 BMatC= 1.89D-05 BMatP= 2.58D-04
 IDIUse=3 WtCom= 9.98D-01 WtEn= 1.89D-03
 Coeff-Com: -0.142D-02-0.318D-02-0.171D-02 0.225D-01 0.270D+00 0.713D+00
 Coeff-En:   0.000D+00 0.000D+00 0.000D+00 0.000D+00 0.000D+00 0.100D+01
 Coeff:     -0.142D-02-0.317D-02-0.170D-02 0.224D-01 0.270D+00 0.714D+00
 Gap=     0.243 Goal=   None    Shift=    0.000
 RMSDP=8.81D-05 MaxDP=8.54D-03 DE=-2.21D-04 OVMax= 1.25D-03

 Cycle   7  Pass 1  IDiag  1:
 RMSU=  7.58D-05    CP:  7.92D-01  6.18D-01  9.88D-01  6.92D-01  1.08D+00
                    CP:  8.33D-01
 E= -1407.15595447033     Delta-E=       -0.000021424996 Rises=F Damp=F
 DIIS: error= 6.46D-05 at cycle   7 NSaved=   7.
 NSaved= 7 IEnMin= 7 EnMin= -1407.15595447033     IErMin= 7 ErrMin= 6.46D-05
 ErrMax= 6.46D-05  0.00D+00 EMaxC= 1.00D-01 BMatC= 1.41D-06 BMatP= 1.89D-05
 IDIUse=1 WtCom= 1.00D+00 WtEn= 0.00D+00
 Coeff-Com: -0.662D-04-0.105D-02-0.729D-02-0.121D-01 0.164D-01 0.185D+00
 Coeff-Com:  0.819D+00
 Coeff:     -0.662D-04-0.105D-02-0.729D-02-0.121D-01 0.164D-01 0.185D+00
 Coeff:      0.819D+00
 Gap=     0.242 Goal=   None    Shift=    0.000
 RMSDP=3.17D-05 MaxDP=3.45D-03 DE=-2.14D-05 OVMax= 6.32D-04

 Cycle   8  Pass 1  IDiag  1:
 RMSU=  2.01D-05    CP:  7.92D-01  6.18D-01  9.89D-01  6.93D-01  1.11D+00
                    CP:  8.88D-01  1.12D+00
 E= -1407.15595656345     Delta-E=       -0.000002093126 Rises=F Damp=F
 DIIS: error= 3.25D-05 at cycle   8 NSaved=   8.
 NSaved= 8 IEnMin= 8 EnMin= -1407.15595656345     IErMin= 8 ErrMin= 3.25D-05
 ErrMax= 3.25D-05  0.00D+00 EMaxC= 1.00D-01 BMatC= 3.57D-07 BMatP= 1.41D-06
 IDIUse=1 WtCom= 1.00D+00 WtEn= 0.00D+00
 Coeff-Com:  0.110D-03-0.141D-03-0.290D-02-0.888D-02-0.264D-01-0.177D-01
 Coeff-Com:  0.330D+00 0.726D+00
 Coeff:      0.110D-03-0.141D-03-0.290D-02-0.888D-02-0.264D-01-0.177D-01
 Coeff:      0.330D+00 0.726D+00
 Gap=     0.242 Goal=   None    Shift=    0.000
 RMSDP=2.09D-05 MaxDP=2.10D-03 DE=-2.09D-06 OVMax= 2.85D-04

 Cycle   9  Pass 1  IDiag  1:
 RMSU=  1.05D-05    CP:  7.92D-01  6.18D-01  9.90D-01  6.90D-01  1.12D+00
                    CP:  9.10D-01  1.26D+00  1.05D+00
 E= -1407.15595707295     Delta-E=       -0.000000509494 Rises=F Damp=F
 DIIS: error= 1.09D-05 at cycle   9 NSaved=   9.
 NSaved= 9 IEnMin= 9 EnMin= -1407.15595707295     IErMin= 9 ErrMin= 1.09D-05
 ErrMax= 1.09D-05  0.00D+00 EMaxC= 1.00D-01 BMatC= 4.90D-08 BMatP= 3.57D-07
 IDIUse=1 WtCom= 1.00D+00 WtEn= 0.00D+00
 Coeff-Com:  0.450D-04 0.115D-03 0.228D-03-0.144D-02-0.122D-01-0.391D-01
 Coeff-Com: -0.270D-01 0.282D+00 0.797D+00
 Coeff:      0.450D-04 0.115D-03 0.228D-03-0.144D-02-0.122D-01-0.391D-01
 Coeff:     -0.270D-01 0.282D+00 0.797D+00
 Gap=     0.242 Goal=   None    Shift=    0.000
 RMSDP=7.03D-06 MaxDP=9.04D-04 DE=-5.09D-07 OVMax= 1.42D-04

 Cycle  10  Pass 1  IDiag  1:
 RMSU=  2.94D-06    CP:  7.92D-01  6.18D-01  9.90D-01  6.90D-01  1.13D+00
                    CP:  9.07D-01  1.31D+00  1.21D+00  1.03D+00
 E= -1407.15595714492     Delta-E=       -0.000000071969 Rises=F Damp=F
 DIIS: error= 2.41D-06 at cycle  10 NSaved=  10.
 NSaved=10 IEnMin=10 EnMin= -1407.15595714492     IErMin=10 ErrMin= 2.41D-06
 ErrMax= 2.41D-06  0.00D+00 EMaxC= 1.00D-01 BMatC= 4.95D-09 BMatP= 4.90D-08
 IDIUse=1 WtCom= 1.00D+00 WtEn= 0.00D+00
 Coeff-Com:  0.761D-05 0.606D-04 0.385D-03 0.285D-03-0.225D-02-0.133D-01
 Coeff-Com: -0.432D-01 0.416D-01 0.321D+00 0.695D+00
 Coeff:      0.761D-05 0.606D-04 0.385D-03 0.285D-03-0.225D-02-0.133D-01
 Coeff:     -0.432D-01 0.416D-01 0.321D+00 0.695D+00
 Gap=     0.242 Goal=   None    Shift=    0.000
 RMSDP=1.79D-06 MaxDP=1.37D-04 DE=-7.20D-08 OVMax= 2.62D-05

 Cycle  11  Pass 1  IDiag  1:
 RMSU=  7.90D-07    CP:  7.92D-01  6.18D-01  9.90D-01  6.90D-01  1.13D+00
                    CP:  9.07D-01  1.32D+00  1.22D+00  1.12D+00  9.73D-01
 E= -1407.15595715032     Delta-E=       -0.000000005406 Rises=F Damp=F
 DIIS: error= 8.73D-07 at cycle  11 NSaved=  11.
 NSaved=11 IEnMin=11 EnMin= -1407.15595715032     IErMin=11 ErrMin= 8.73D-07
 ErrMax= 8.73D-07  0.00D+00 EMaxC= 1.00D-01 BMatC= 5.49D-10 BMatP= 4.95D-09
 IDIUse=1 WtCom= 1.00D+00 WtEn= 0.00D+00
 Coeff-Com: -0.182D-05 0.111D-04 0.126D-03 0.251D-03 0.383D-03-0.732D-03
 Coeff-Com: -0.131D-01-0.138D-01 0.382D-01 0.280D+00 0.709D+00
 Coeff:     -0.182D-05 0.111D-04 0.126D-03 0.251D-03 0.383D-03-0.732D-03
 Coeff:     -0.131D-01-0.138D-01 0.382D-01 0.280D+00 0.709D+00
 Gap=     0.242 Goal=   None    Shift=    0.000
 RMSDP=4.24D-07 MaxDP=3.19D-05 DE=-5.41D-09 OVMax= 9.14D-06

 Cycle  12  Pass 1  IDiag  1:
 RMSU=  2.03D-07    CP:  7.92D-01  6.18D-01  9.90D-01  6.90D-01  1.13D+00
                    CP:  9.07D-01  1.32D+00  1.23D+00  1.14D+00  1.05D+00
                    CP:  1.06D+00
 E= -1407.15595715079     Delta-E=       -0.000000000470 Rises=F Damp=F
 DIIS: error= 3.26D-07 at cycle  12 NSaved=  12.
 NSaved=12 IEnMin=12 EnMin= -1407.15595715079     IErMin=12 ErrMin= 3.26D-07
 ErrMax= 3.26D-07  0.00D+00 EMaxC= 1.00D-01 BMatC= 8.54D-11 BMatP= 5.49D-10
 IDIUse=1 WtCom= 1.00D+00 WtEn= 0.00D+00
 Coeff-Com: -0.128D-05-0.135D-05 0.155D-04 0.733D-04 0.403D-03 0.118D-02
 Coeff-Com: -0.115D-02-0.105D-01-0.194D-01 0.497D-01 0.323D+00 0.657D+00
 Coeff:     -0.128D-05-0.135D-05 0.155D-04 0.733D-04 0.403D-03 0.118D-02
 Coeff:     -0.115D-02-0.105D-01-0.194D-01 0.497D-01 0.323D+00 0.657D+00
 Gap=     0.242 Goal=   None    Shift=    0.000
 RMSDP=1.75D-07 MaxDP=3.16D-05 DE=-4.70D-10 OVMax= 2.80D-06

 Cycle  13  Pass 1  IDiag  1:
 RMSU=  1.03D-07    CP:  7.92D-01  6.18D-01  9.90D-01  6.90D-01  1.13D+00
                    CP:  9.07D-01  1.32D+00  1.23D+00  1.15D+00  1.07D+00
                    CP:  1.11D+00  1.06D+00
 E= -1407.15595715112     Delta-E=       -0.000000000330 Rises=F Damp=F
 DIIS: error= 1.34D-07 at cycle  13 NSaved=  13.
 NSaved=13 IEnMin=13 EnMin= -1407.15595715112     IErMin=13 ErrMin= 1.34D-07
 ErrMax= 1.34D-07  0.00D+00 EMaxC= 1.00D-01 BMatC= 7.39D-12 BMatP= 8.54D-11
 IDIUse=1 WtCom= 1.00D+00 WtEn= 0.00D+00
 Coeff-Com: -0.208D-06-0.186D-05-0.918D-05-0.975D-05 0.904D-04 0.481D-03
 Coeff-Com:  0.120D-02-0.123D-02-0.123D-01-0.226D-01 0.727D-02 0.217D+00
 Coeff-Com:  0.810D+00
 Coeff:     -0.208D-06-0.186D-05-0.918D-05-0.975D-05 0.904D-04 0.481D-03
 Coeff:      0.120D-02-0.123D-02-0.123D-01-0.226D-01 0.727D-02 0.217D+00
 Coeff:      0.810D+00
 Gap=     0.242 Goal=   None    Shift=    0.000
 RMSDP=7.38D-08 MaxDP=6.37D-06 DE=-3.30D-10 OVMax= 1.96D-06

 Cycle  14  Pass 1  IDiag  1:
 RMSU=  3.63D-08    CP:  7.92D-01  6.18D-01  9.90D-01  6.90D-01  1.13D+00
                    CP:  9.07D-01  1.32D+00  1.23D+00  1.15D+00  1.08D+00
                    CP:  1.12D+00  1.16D+00  1.19D+00
 E= -1407.15595715095     Delta-E=        0.000000000175 Rises=F Damp=F
 DIIS: error= 3.94D-08 at cycle  14 NSaved=  14.
 NSaved=14 IEnMin=13 EnMin= -1407.15595715112     IErMin=14 ErrMin= 3.94D-08
 ErrMax= 3.94D-08  0.00D+00 EMaxC= 1.00D-01 BMatC= 7.21D-13 BMatP= 7.39D-12
 IDIUse=1 WtCom= 1.00D+00 WtEn= 0.00D+00
 Coeff-Com:  0.264D-07-0.358D-06-0.271D-05-0.697D-05-0.255D-06 0.376D-04
 Coeff-Com:  0.350D-03 0.597D-03-0.232D-02-0.107D-01-0.247D-01 0.958D-02
 Coeff-Com:  0.266D+00 0.761D+00
 Coeff:      0.264D-07-0.358D-06-0.271D-05-0.697D-05-0.255D-06 0.376D-04
 Coeff:      0.350D-03 0.597D-03-0.232D-02-0.107D-01-0.247D-01 0.958D-02
 Coeff:      0.266D+00 0.761D+00
 Gap=     0.242 Goal=   None    Shift=    0.000
 RMSDP=1.78D-08 MaxDP=2.25D-06 DE= 1.75D-10 OVMax= 5.18D-07

 Cycle  15  Pass 1  IDiag  1:
 RMSU=  9.28D-09    CP:  7.92D-01  6.18D-01  9.90D-01  6.90D-01  1.13D+00
                    CP:  9.07D-01  1.32D+00  1.23D+00  1.15D+00  1.08D+00
                    CP:  1.12D+00  1.18D+00  1.25D+00  1.07D+00
 E= -1407.15595715089     Delta-E=        0.000000000062 Rises=F Damp=F
 DIIS: error= 2.21D-08 at cycle  15 NSaved=  15.
 NSaved=15 IEnMin=13 EnMin= -1407.15595715112     IErMin=15 ErrMin= 2.21D-08
 ErrMax= 2.21D-08  0.00D+00 EMaxC= 1.00D-01 BMatC= 1.29D-13 BMatP= 7.21D-13
 IDIUse=1 WtCom= 1.00D+00 WtEn= 0.00D+00
 Coeff-Com:  0.336D-07 0.114D-06 0.125D-06-0.133D-05-0.122D-04-0.548D-04
 Coeff-Com: -0.469D-04 0.441D-03 0.863D-03-0.516D-03-0.105D-01-0.310D-01
 Coeff-Com: -0.170D-01 0.299D+00 0.759D+00
 Coeff:      0.336D-07 0.114D-06 0.125D-06-0.133D-05-0.122D-04-0.548D-04
 Coeff:     -0.469D-04 0.441D-03 0.863D-03-0.516D-03-0.105D-01-0.310D-01
 Coeff:     -0.170D-01 0.299D+00 0.759D+00
 Gap=     0.242 Goal=   None    Shift=    0.000
 RMSDP=9.21D-09 MaxDP=1.08D-06 DE= 6.23D-11 OVMax= 2.89D-07

 Cycle  16  Pass 1  IDiag  1:
 RMSU=  5.00D-09    CP:  7.92D-01  6.18D-01  9.90D-01  6.90D-01  1.13D+00
                    CP:  9.07D-01  1.32D+00  1.23D+00  1.15D+00  1.08D+00
                    CP:  1.12D+00  1.19D+00  1.29D+00  1.13D+00  9.68D-01
 E= -1407.15595715106     Delta-E=       -0.000000000176 Rises=F Damp=F
 DIIS: error= 7.03D-09 at cycle  16 NSaved=  16.
 NSaved=16 IEnMin=13 EnMin= -1407.15595715112     IErMin=16 ErrMin= 7.03D-09
 ErrMax= 7.03D-09  0.00D+00 EMaxC= 1.00D-01 BMatC= 1.90D-14 BMatP= 1.29D-13
 IDIUse=1 WtCom= 1.00D+00 WtEn= 0.00D+00
 Coeff-Com:  0.407D-08 0.647D-07 0.176D-06 0.303D-06-0.376D-05-0.208D-04
 Coeff-Com: -0.565D-04 0.613D-04 0.573D-03 0.146D-02 0.106D-03-0.125D-01
 Coeff-Com: -0.449D-01-0.744D-02 0.284D+00 0.778D+00
 Coeff:      0.407D-08 0.647D-07 0.176D-06 0.303D-06-0.376D-05-0.208D-04
 Coeff:     -0.565D-04 0.613D-04 0.573D-03 0.146D-02 0.106D-03-0.125D-01
 Coeff:     -0.449D-01-0.744D-02 0.284D+00 0.778D+00
 Gap=     0.242 Goal=   None    Shift=    0.000
 RMSDP=2.91D-09 MaxDP=3.26D-07 DE=-1.76D-10 OVMax= 1.23D-07

 Error on total polarization charges =  0.05636
 SCF Done:  E(RM062X) =  -1407.15595715     A.U. after   16 cycles
            NFock= 16  Conv=0.29D-08     -V/T= 2.0037
 KE= 1.401901364194D+03 PE=-7.783163084962D+03 EE= 2.729174038318D+03
 SMD-CDS (non-electrostatic) energy       (kcal/mol) =      -7.29
 (included in total energy above)
 Leave Link  502 at Tue May  8 16:25:28 2018, MaxMem=  1073741824 cpu:      4605.5
 (Enter /ihome/crc/build/g09/g09-D.01/TAR/g09/l801.exe)
 DoSCS=F DFT=T ScalE2(SS,OS)=  1.000000  1.000000
 Range of M.O.s used for correlation:     1   702
 NBasis=   704 NAE=    93 NBE=    93 NFC=     0 NFV=     0
 NROrb=    702 NOA=    93 NOB=    93 NVA=   609 NVB=   609

 **** Warning!!: The largest alpha MO coefficient is  0.12322153D+03

 Leave Link  801 at Tue May  8 16:25:29 2018, MaxMem=  1073741824 cpu:         0.2
 (Enter /ihome/crc/build/g09/g09-D.01/TAR/g09/l1101.exe)
 Using compressed storage, NAtomX=    52.
 Will process     53 centers per pass.
 Leave Link 1101 at Tue May  8 16:25:30 2018, MaxMem=  1073741824 cpu:        11.0
 (Enter /ihome/crc/build/g09/g09-D.01/TAR/g09/l1102.exe)
 Symmetrizing basis deriv contribution to polar:
 IMax=3 JMax=2 DiffMx= 0.00D+00
 Leave Link 1102 at Tue May  8 16:25:30 2018, MaxMem=  1073741824 cpu:         0.5
 (Enter /ihome/crc/build/g09/g09-D.01/TAR/g09/l1110.exe)
 Forming Gx(P) for the SCF density, NAtomX=    52.
 Integral derivatives from FoFJK, PRISM(SPDF).
 Do as many integral derivatives as possible in FoFJK.
 G2DrvN: MDV=    1073741304.
 G2DrvN: will do    53 centers at a time, making    1 passes.
 Calling FoFCou, ICntrl=  3107 FMM=F I1Cent=   0 AccDes= 0.00D+00.
 FoFJK:  IHMeth= 1 ICntrl=    3107 DoSepK=F KAlg= 0 I1Cent=   0 FoldK=F
 IRaf=         0 NMat=   1 IRICut=       1 DoRegI=T DoRafI=F ISym2E= 0.
 FoFCou: FMM=F IPFlag=           0 FMFlag=      100000 FMFlg1=           0
         NFxFlg=           0 DoJE=F BraDBF=F KetDBF=F FulRan=T
         wScrn=  0.000000 ICntrl=    3107 IOpCl=  0 I1Cent=           0 NGrid=           0
         NMat0=    1 NMatS0=      1 NMatT0=    0 NMatD0=    1 NMtDS0=    0 NMtDT0=    0
 Symmetry not used in FoFCou.
 NEqPCM:  Using equilibrium solvation (IEInf=0, Eps=   4.7113, EpsInf=   2.0906)
 G2PCM: DoFxE=T DoFxN=T DoGrad=T DoDP/DQ/DG/TGxP=FFFF NFrqRd=   0 IEInf=0 SqF1=F DoCFld=F IF1Alg=4.
 GePol: Maximum number of non-zero 1st derivatives   =     363
 End of G2Drv F.D. properties file   721 does not exist.
 End of G2Drv F.D. properties file   722 does not exist.
 End of G2Drv F.D. properties file   788 does not exist.
 Leave Link 1110 at Tue May  8 16:43:58 2018, MaxMem=  1073741824 cpu:      8859.3
 (Enter /ihome/crc/build/g09/g09-D.01/TAR/g09/l1002.exe)
 Minotr:  Closed shell wavefunction.
          IDoAtm=11111111111111111111111111111111111111111111111111
          IDoAtm=11
 NEqPCM:  Using equilibrium solvation (IEInf=0, Eps=   4.7113, EpsInf=   2.0906)
          Direct CPHF calculation.
          Differentiating once with respect to electric field.
                with respect to dipole field.
          Differentiating once with respect to nuclear coordinates.
          Requested convergence is 1.0D-08 RMS, and 1.0D-07 maximum.
          Secondary convergence is 1.0D-12 RMS, and 1.0D-12 maximum.
          NewPWx=T KeepS1=F KeepF1=F KeepIn=T MapXYZ=F SortEE=F KeepMc=T.
          MDV=    1073740598 using IRadAn=       2.
 Generate precomputed XC quadrature information.
          Solving linear equations simultaneously, MaxMat=       0.
 FoFJK:  IHMeth= 1 ICntrl=       0 DoSepK=F KAlg= 0 I1Cent=   0 FoldK=F
 IRaf= 750000000 NMat= 159 IRICut=     397 DoRegI=T DoRafI=T ISym2E= 2.
 FoFCou: FMM=F IPFlag=           0 FMFlag=      100000 FMFlg1=           0
         NFxFlg=           0 DoJE=F BraDBF=F KetDBF=F FulRan=T
         wScrn=  0.000000 ICntrl=       0 IOpCl=  0 I1Cent=           0 NGrid=           0
         NMat0=  159 NMatS0=    159 NMatT0=    0 NMatD0=  159 NMtDS0=    0 NMtDT0=    0
 Integrals replicated using symmetry in FoFCou.
          There are   159 degrees of freedom in the 1st order CPHF.  IDoFFX=6 NUNeed=     3.
    156 vectors produced by pass  0 Test12= 5.66D-14 1.00D-09 XBig12= 1.70D+02 4.77D+00.
 AX will form   156 AO Fock derivatives at one time.
    156 vectors produced by pass  1 Test12= 5.66D-14 1.00D-09 XBig12= 1.79D+01 5.00D-01.
    156 vectors produced by pass  2 Test12= 5.66D-14 1.00D-09 XBig12= 3.97D-01 8.17D-02.
    156 vectors produced by pass  3 Test12= 5.66D-14 1.00D-09 XBig12= 3.79D-03 7.16D-03.
    156 vectors produced by pass  4 Test12= 5.66D-14 1.00D-09 XBig12= 2.69D-05 6.00D-04.
    156 vectors produced by pass  5 Test12= 5.66D-14 1.00D-09 XBig12= 1.37D-07 3.81D-05.
    101 vectors produced by pass  6 Test12= 5.66D-14 1.00D-09 XBig12= 5.78D-10 1.27D-06.
     44 vectors produced by pass  7 Test12= 5.66D-14 1.00D-09 XBig12= 1.09D-11 2.47D-07.
     44 vectors produced by pass  8 Test12= 5.66D-14 1.00D-09 XBig12= 1.02D-12 6.00D-08.
     44 vectors produced by pass  9 Test12= 5.66D-14 1.00D-09 XBig12= 1.18D-13 1.91D-08.
     44 vectors produced by pass 10 Test12= 5.66D-14 1.00D-09 XBig12= 1.13D-14 7.55D-09.
     43 vectors produced by pass 11 Test12= 5.66D-14 1.00D-09 XBig12= 1.06D-15 2.15D-09.
     43 vectors produced by pass 12 Test12= 5.66D-14 1.00D-09 XBig12= 4.51D-15 4.00D-09.
     43 vectors produced by pass 13 Test12= 5.66D-14 1.00D-09 XBig12= 3.95D-14 1.10D-08.
     43 vectors produced by pass 14 Test12= 5.66D-14 1.00D-09 XBig12= 2.26D-14 7.87D-09.
     43 vectors produced by pass 15 Test12= 5.66D-14 1.00D-09 XBig12= 3.03D-14 8.24D-09.
     43 vectors produced by pass 16 Test12= 5.66D-14 1.00D-09 XBig12= 1.32D-14 6.55D-09.
     43 vectors produced by pass 17 Test12= 5.66D-14 1.00D-09 XBig12= 1.83D-14 6.78D-09.
     43 vectors produced by pass 18 Test12= 5.66D-14 1.00D-09 XBig12= 2.40D-14 7.51D-09.
     37 vectors produced by pass 19 Test12= 5.66D-14 1.00D-09 XBig12= 8.46D-15 4.82D-09.
     37 vectors produced by pass 20 Test12= 5.66D-14 1.00D-09 XBig12= 1.72D-14 7.28D-09.
     37 vectors produced by pass 21 Test12= 5.66D-14 1.00D-09 XBig12= 1.81D-14 7.65D-09.
     37 vectors produced by pass 22 Test12= 5.66D-14 1.00D-09 XBig12= 2.23D-14 6.56D-09.
     37 vectors produced by pass 23 Test12= 5.66D-14 1.00D-09 XBig12= 1.60D-14 5.59D-09.
     37 vectors produced by pass 24 Test12= 5.66D-14 1.00D-09 XBig12= 1.47D-14 5.16D-09.
     37 vectors produced by pass 25 Test12= 5.66D-14 1.00D-09 XBig12= 2.11D-14 6.52D-09.
     37 vectors produced by pass 26 Test12= 5.66D-14 1.00D-09 XBig12= 1.38D-14 5.61D-09.
     37 vectors produced by pass 27 Test12= 5.66D-14 1.00D-09 XBig12= 2.73D-14 6.97D-09.
     27 vectors produced by pass 28 Test12= 5.66D-14 1.00D-09 XBig12= 9.01D-15 5.13D-09.
     27 vectors produced by pass 29 Test12= 5.66D-14 1.00D-09 XBig12= 2.64D-14 8.61D-09.
     27 vectors produced by pass 30 Test12= 5.66D-14 1.00D-09 XBig12= 1.52D-14 5.11D-09.
     27 vectors produced by pass 31 Test12= 5.66D-14 1.00D-09 XBig12= 1.53D-14 5.79D-09.
     27 vectors produced by pass 32 Test12= 5.66D-14 1.00D-09 XBig12= 2.03D-14 5.65D-09.
     27 vectors produced by pass 33 Test12= 5.66D-14 1.00D-09 XBig12= 1.63D-14 5.37D-09.
     27 vectors produced by pass 34 Test12= 5.66D-14 1.00D-09 XBig12= 1.64D-14 5.46D-09.
     14 vectors produced by pass 35 Test12= 5.66D-14 1.00D-09 XBig12= 5.70D-15 2.92D-09.
     14 vectors produced by pass 36 Test12= 5.66D-14 1.00D-09 XBig12= 1.41D-14 4.98D-09.
     14 vectors produced by pass 37 Test12= 5.66D-14 1.00D-09 XBig12= 1.10D-14 4.56D-09.
     14 vectors produced by pass 38 Test12= 5.66D-14 1.00D-09 XBig12= 1.84D-14 6.00D-09.
     14 vectors produced by pass 39 Test12= 5.66D-14 1.00D-09 XBig12= 1.70D-14 5.89D-09.
     14 vectors produced by pass 40 Test12= 5.66D-14 1.00D-09 XBig12= 7.94D-15 4.02D-09.
     14 vectors produced by pass 41 Test12= 5.66D-14 1.00D-09 XBig12= 8.88D-15 4.07D-09.
     14 vectors produced by pass 42 Test12= 5.66D-14 1.00D-09 XBig12= 8.78D-15 4.43D-09.
     14 vectors produced by pass 43 Test12= 5.66D-14 1.00D-09 XBig12= 9.59D-15 4.73D-09.
     14 vectors produced by pass 44 Test12= 5.66D-14 1.00D-09 XBig12= 9.57D-15 4.69D-09.
     14 vectors produced by pass 45 Test12= 5.66D-14 1.00D-09 XBig12= 8.94D-15 4.02D-09.
     14 vectors produced by pass 46 Test12= 5.66D-14 1.00D-09 XBig12= 8.08D-15 3.50D-09.
     14 vectors produced by pass 47 Test12= 5.66D-14 1.00D-09 XBig12= 7.02D-15 3.44D-09.
      7 vectors produced by pass 48 Test12= 5.66D-14 1.00D-09 XBig12= 3.05D-15 2.14D-09.
      7 vectors produced by pass 49 Test12= 5.66D-14 1.00D-09 XBig12= 6.21D-15 4.71D-09.
      7 vectors produced by pass 50 Test12= 5.66D-14 1.00D-09 XBig12= 9.50D-15 4.66D-09.
      7 vectors produced by pass 51 Test12= 5.66D-14 1.00D-09 XBig12= 6.16D-15 3.38D-09.
      7 vectors produced by pass 52 Test12= 5.66D-14 1.00D-09 XBig12= 5.15D-15 2.79D-09.
      7 vectors produced by pass 53 Test12= 5.66D-14 1.00D-09 XBig12= 7.25D-15 3.63D-09.
      6 vectors produced by pass 54 Test12= 5.66D-14 1.00D-09 XBig12= 4.81D-15 2.81D-09.
      6 vectors produced by pass 55 Test12= 5.66D-14 1.00D-09 XBig12= 1.05D-14 4.72D-09.
      6 vectors produced by pass 56 Test12= 5.66D-14 1.00D-09 XBig12= 8.14D-15 3.69D-09.
      6 vectors produced by pass 57 Test12= 5.66D-14 1.00D-09 XBig12= 7.47D-15 3.70D-09.
      6 vectors produced by pass 58 Test12= 5.66D-14 1.00D-09 XBig12= 7.45D-15 3.64D-09.
      6 vectors produced by pass 59 Test12= 5.66D-14 1.00D-09 XBig12= 1.09D-14 4.51D-09.
      6 vectors produced by pass 60 Test12= 5.66D-14 1.00D-09 XBig12= 5.95D-15 2.96D-09.
      6 vectors produced by pass 61 Test12= 5.66D-14 1.00D-09 XBig12= 7.46D-15 3.49D-09.
      6 vectors produced by pass 62 Test12= 5.66D-14 1.00D-09 XBig12= 1.35D-14 4.94D-09.
      6 vectors produced by pass 63 Test12= 5.66D-14 1.00D-09 XBig12= 5.38D-15 2.81D-09.
      6 vectors produced by pass 64 Test12= 5.66D-14 1.00D-09 XBig12= 7.87D-15 3.22D-09.
      6 vectors produced by pass 65 Test12= 5.66D-14 1.00D-09 XBig12= 3.68D-15 2.47D-09.
      6 vectors produced by pass 66 Test12= 5.66D-14 1.00D-09 XBig12= 4.62D-15 2.63D-09.
      6 vectors produced by pass 67 Test12= 5.66D-14 1.00D-09 XBig12= 4.07D-15 2.68D-09.
      6 vectors produced by pass 68 Test12= 5.66D-14 1.00D-09 XBig12= 7.02D-15 3.95D-09.
      6 vectors produced by pass 69 Test12= 5.66D-14 1.00D-09 XBig12= 1.83D-15 1.68D-09.
      6 vectors produced by pass 70 Test12= 5.66D-14 1.00D-09 XBig12= 8.53D-15 3.76D-09.
      6 vectors produced by pass 71 Test12= 5.66D-14 1.00D-09 XBig12= 4.18D-15 2.92D-09.
      6 vectors produced by pass 72 Test12= 5.66D-14 1.00D-09 XBig12= 5.35D-15 3.15D-09.
      6 vectors produced by pass 73 Test12= 5.66D-14 1.00D-09 XBig12= 3.89D-15 2.52D-09.
      6 vectors produced by pass 74 Test12= 5.66D-14 1.00D-09 XBig12= 6.54D-15 2.93D-09.
      6 vectors produced by pass 75 Test12= 5.66D-14 1.00D-09 XBig12= 7.02D-15 3.55D-09.
      6 vectors produced by pass 76 Test12= 5.66D-14 1.00D-09 XBig12= 5.60D-15 2.82D-09.
      6 vectors produced by pass 77 Test12= 5.66D-14 1.00D-09 XBig12= 4.15D-15 2.73D-09.
      6 vectors produced by pass 78 Test12= 5.66D-14 1.00D-09 XBig12= 3.64D-15 2.35D-09.
      6 vectors produced by pass 79 Test12= 5.66D-14 1.00D-09 XBig12= 3.71D-15 2.85D-09.
      6 vectors produced by pass 80 Test12= 5.66D-14 1.00D-09 XBig12= 5.04D-15 2.91D-09.
      5 vectors produced by pass 81 Test12= 5.66D-14 1.00D-09 XBig12= 2.56D-15 2.04D-09.
      5 vectors produced by pass 82 Test12= 5.66D-14 1.00D-09 XBig12= 5.78D-15 2.96D-09.
      5 vectors produced by pass 83 Test12= 5.66D-14 1.00D-09 XBig12= 1.01D-14 4.22D-09.
      5 vectors produced by pass 84 Test12= 5.66D-14 1.00D-09 XBig12= 6.10D-15 3.04D-09.
      5 vectors produced by pass 85 Test12= 5.66D-14 1.00D-09 XBig12= 7.08D-15 3.16D-09.
      5 vectors produced by pass 86 Test12= 5.66D-14 1.00D-09 XBig12= 5.02D-15 2.46D-09.
      5 vectors produced by pass 87 Test12= 5.66D-14 1.00D-09 XBig12= 3.65D-15 2.37D-09.
      5 vectors produced by pass 88 Test12= 5.66D-14 1.00D-09 XBig12= 6.62D-15 3.03D-09.
      5 vectors produced by pass 89 Test12= 5.66D-14 1.00D-09 XBig12= 3.73D-15 2.67D-09.
      5 vectors produced by pass 90 Test12= 5.66D-14 1.00D-09 XBig12= 3.36D-15 2.14D-09.
      5 vectors produced by pass 91 Test12= 5.66D-14 1.00D-09 XBig12= 6.61D-15 3.07D-09.
      5 vectors produced by pass 92 Test12= 5.66D-14 1.00D-09 XBig12= 3.48D-15 2.33D-09.
      5 vectors produced by pass 93 Test12= 5.66D-14 1.00D-09 XBig12= 4.90D-15 2.88D-09.
      5 vectors produced by pass 94 Test12= 5.66D-14 1.00D-09 XBig12= 4.88D-15 2.80D-09.
      5 vectors produced by pass 95 Test12= 5.66D-14 1.00D-09 XBig12= 5.10D-15 2.93D-09.
      5 vectors produced by pass 96 Test12= 5.66D-14 1.00D-09 XBig12= 4.08D-15 2.14D-09.
      5 vectors produced by pass 97 Test12= 5.66D-14 1.00D-09 XBig12= 4.26D-15 2.59D-09.
      5 vectors produced by pass 98 Test12= 5.66D-14 1.00D-09 XBig12= 2.62D-15 1.96D-09.
      5 vectors produced by pass 99 Test12= 5.66D-14 1.00D-09 XBig12= 5.06D-15 2.97D-09.
      5 vectors produced by pass100 Test12= 5.66D-14 1.00D-09 XBig12= 4.14D-15 2.70D-09.
      5 vectors produced by pass101 Test12= 5.66D-14 1.00D-09 XBig12= 5.21D-15 3.04D-09.
      5 vectors produced by pass102 Test12= 5.66D-14 1.00D-09 XBig12= 3.36D-15 2.19D-09.
      5 vectors produced by pass103 Test12= 5.66D-14 1.00D-09 XBig12= 2.77D-15 2.01D-09.
      5 vectors produced by pass104 Test12= 5.66D-14 1.00D-09 XBig12= 3.65D-15 2.36D-09.
      5 vectors produced by pass105 Test12= 5.66D-14 1.00D-09 XBig12= 2.21D-15 1.83D-09.
      5 vectors produced by pass106 Test12= 5.66D-14 1.00D-09 XBig12= 2.06D-15 1.78D-09.
      5 vectors produced by pass107 Test12= 5.66D-14 1.00D-09 XBig12= 3.38D-15 2.31D-09.
      5 vectors produced by pass108 Test12= 5.66D-14 1.00D-09 XBig12= 2.67D-15 2.03D-09.
      5 vectors produced by pass109 Test12= 5.66D-14 1.00D-09 XBig12= 1.93D-15 2.07D-09.
      5 vectors produced by pass110 Test12= 5.66D-14 1.00D-09 XBig12= 4.90D-15 2.75D-09.
      5 vectors produced by pass111 Test12= 5.66D-14 1.00D-09 XBig12= 3.33D-15 2.28D-09.
      5 vectors produced by pass112 Test12= 5.66D-14 1.00D-09 XBig12= 3.98D-15 2.78D-09.
      5 vectors produced by pass113 Test12= 5.66D-14 1.00D-09 XBig12= 4.45D-15 2.85D-09.
      5 vectors produced by pass114 Test12= 5.66D-14 1.00D-09 XBig12= 2.04D-15 1.80D-09.
      5 vectors produced by pass115 Test12= 5.66D-14 1.00D-09 XBig12= 5.51D-15 2.81D-09.
      5 vectors produced by pass116 Test12= 5.66D-14 1.00D-09 XBig12= 2.02D-15 1.85D-09.
      5 vectors produced by pass117 Test12= 5.66D-14 1.00D-09 XBig12= 2.34D-15 1.95D-09.
      5 vectors produced by pass118 Test12= 5.66D-14 1.00D-09 XBig12= 3.48D-15 2.09D-09.
      5 vectors produced by pass119 Test12= 5.66D-14 1.00D-09 XBig12= 1.81D-15 1.54D-09.
      5 vectors produced by pass120 Test12= 5.66D-14 1.00D-09 XBig12= 4.17D-15 2.43D-09.
      4 vectors produced by pass121 Test12= 5.66D-14 1.00D-09 XBig12= 1.18D-15 1.38D-09.
      4 vectors produced by pass122 Test12= 5.66D-14 1.00D-09 XBig12= 1.94D-15 1.79D-09.
      4 vectors produced by pass123 Test12= 5.66D-14 1.00D-09 XBig12= 3.72D-15 2.36D-09.
      4 vectors produced by pass124 Test12= 5.66D-14 1.00D-09 XBig12= 1.62D-15 1.67D-09.
      4 vectors produced by pass125 Test12= 5.66D-14 1.00D-09 XBig12= 3.17D-15 2.05D-09.
      3 vectors produced by pass126 Test12= 5.66D-14 1.00D-09 XBig12= 1.14D-15 1.26D-09.
      3 vectors produced by pass127 Test12= 5.66D-14 1.00D-09 XBig12= 2.88D-15 2.22D-09.
      3 vectors produced by pass128 Test12= 5.66D-14 1.00D-09 XBig12= 5.64D-15 2.79D-09.
      3 vectors produced by pass129 Test12= 5.66D-14 1.00D-09 XBig12= 1.56D-15 1.47D-09.
      3 vectors produced by pass130 Test12= 5.66D-14 1.00D-09 XBig12= 2.69D-15 1.89D-09.
      3 vectors produced by pass131 Test12= 5.66D-14 1.00D-09 XBig12= 2.79D-15 1.77D-09.
      3 vectors produced by pass132 Test12= 5.66D-14 1.00D-09 XBig12= 2.88D-15 2.01D-09.
      3 vectors produced by pass133 Test12= 5.66D-14 1.00D-09 XBig12= 1.82D-15 1.75D-09.
      3 vectors produced by pass134 Test12= 5.66D-14 1.00D-09 XBig12= 4.05D-15 2.83D-09.
      3 vectors produced by pass135 Test12= 5.66D-14 1.00D-09 XBig12= 1.58D-15 1.44D-09.
      3 vectors produced by pass136 Test12= 5.66D-14 1.00D-09 XBig12= 4.15D-15 2.30D-09.
      3 vectors produced by pass137 Test12= 5.66D-14 1.00D-09 XBig12= 1.61D-15 1.44D-09.
      3 vectors produced by pass138 Test12= 5.66D-14 1.00D-09 XBig12= 2.16D-15 1.75D-09.
      3 vectors produced by pass139 Test12= 5.66D-14 1.00D-09 XBig12= 4.73D-15 2.59D-09.
      3 vectors produced by pass140 Test12= 5.66D-14 1.00D-09 XBig12= 4.40D-15 2.49D-09.
      3 vectors produced by pass141 Test12= 5.66D-14 1.00D-09 XBig12= 2.72D-15 1.87D-09.
      3 vectors produced by pass142 Test12= 5.66D-14 1.00D-09 XBig12= 3.46D-15 2.00D-09.
      3 vectors produced by pass143 Test12= 5.66D-14 1.00D-09 XBig12= 2.50D-15 1.85D-09.
      3 vectors produced by pass144 Test12= 5.66D-14 1.00D-09 XBig12= 3.27D-15 2.34D-09.
      3 vectors produced by pass145 Test12= 5.66D-14 1.00D-09 XBig12= 5.07D-15 2.59D-09.
      3 vectors produced by pass146 Test12= 5.66D-14 1.00D-09 XBig12= 2.75D-15 2.06D-09.
      3 vectors produced by pass147 Test12= 5.66D-14 1.00D-09 XBig12= 2.63D-15 1.92D-09.
      3 vectors produced by pass148 Test12= 5.66D-14 1.00D-09 XBig12= 3.35D-15 2.38D-09.
      3 vectors produced by pass149 Test12= 5.66D-14 1.00D-09 XBig12= 2.98D-15 1.97D-09.
      3 vectors produced by pass150 Test12= 5.66D-14 1.00D-09 XBig12= 2.26D-15 1.88D-09.
      3 vectors produced by pass151 Test12= 5.66D-14 1.00D-09 XBig12= 5.09D-15 2.63D-09.
      3 vectors produced by pass152 Test12= 5.66D-14 1.00D-09 XBig12= 1.49D-15 1.56D-09.
      3 vectors produced by pass153 Test12= 5.66D-14 1.00D-09 XBig12= 3.16D-15 2.00D-09.
      3 vectors produced by pass154 Test12= 5.66D-14 1.00D-09 XBig12= 3.14D-15 1.97D-09.
      3 vectors produced by pass155 Test12= 5.66D-14 1.00D-09 XBig12= 1.20D-15 1.35D-09.
      3 vectors produced by pass156 Test12= 5.66D-14 1.00D-09 XBig12= 3.94D-15 2.34D-09.
      3 vectors produced by pass157 Test12= 5.66D-14 1.00D-09 XBig12= 1.88D-15 1.92D-09.
      3 vectors produced by pass158 Test12= 5.66D-14 1.00D-09 XBig12= 1.81D-15 1.64D-09.
      3 vectors produced by pass159 Test12= 5.66D-14 1.00D-09 XBig12= 2.21D-15 1.93D-09.
      3 vectors produced by pass160 Test12= 5.66D-14 1.00D-09 XBig12= 3.03D-15 2.29D-09.
      3 vectors produced by pass161 Test12= 5.66D-14 1.00D-09 XBig12= 1.94D-15 1.64D-09.
      3 vectors produced by pass162 Test12= 5.66D-14 1.00D-09 XBig12= 2.19D-15 1.78D-09.
[...]
 -0.00004293,-0.00001701,-0.00002452,0.00010800,0.00009272,0.00002902,-
 0.00030691,-0.00030582,-0.00041145,0.00099017,0.00179962,-0.00072520,-
 0.00342580,-0.00252498,-0.00414572,0.00000084,0.00000136,-0.00000045,0
 .00000011,0.00000113,-0.00000032,-0.00000297,0.00000292,-0.00000505,-0
 .00000086,0.00000191,-0.00000060,-0.00000203,0.00000127,-0.00000089,-0
 .00005888,0.00000147,-0.00004477,0.00002525,0.00001748,-0.00000360,0.0
 1049575,0.02211814,-0.01913261,0.00009996,0.00012779,-0.00005434,-0.00
 006534,-0.00006298,0.00002277,-0.00009602,0.00002761,0.00007449,0.0000
 3057,-0.00003504,-0.00004386,0.00003827,-0.00000101,-0.00002303,-0.000
 01522,0.00001368,-0.00007140,-0.00001419,-0.00000429,-0.00000430,-0.00
 000469,0.00000562,-0.00004124,0.00151794,0.00040303,0.00069259,0.05121
 588,0.10950959,-0.13278716,0.00051064,0.00160262,0.00084823,0.00006113
 ,0.00001297,0.00001762,0.00000852,0.00002453,0.00004384,0.00003719,0.0
 0004172,-0.00000043,-0.00000880,-0.00001074,0.00000358,-0.00000763,-0.
 00000193,-0.00000319,0.00002301,0.00001334,-0.00000114,-0.00000021,-0.
 00000898,0.00000510,-0.00000393,0.00002814,0.00001106,-0.00000718,-0.0
 0000255,-0.00000194,0.00002488,0.00002390,-0.00000067,0.00000919,0.000
 01027,0.00001555,-0.00000307,0.00000400,-0.00000340,-0.00018661,-0.000
 10525,0.00040788,-0.00010920,-0.00086000,-0.00033414,0.00001287,-0.000
 09483,-0.00006362,-0.00562253,-0.00904621,0.00801434,0.00017739,-0.000
 58197,-0.00091362,-0.05465340,-0.12112194,0.14720100,-0.00000224,-0.00
 000363,-0.00000165,-0.00000250,-0.00000083,0.00000056,0.00000352,-0.00
 000267,-0.00000648,-0.00001663,-0.00000021,0.00000516,-0.00000351,-0.0
 0000024,0.00000337,-0.00000058,-0.00000094,0.00000215,0.00015469,-0.00
 044413,-0.00026927,-0.00015504,-0.00005157,0.00004515,-0.00001903,0.00
 004150,-0.00004327,-0.00001221,0.00006468,0.00014003,0.00010935,-0.000
 26637,-0.00000494,0.00132514,0.00199776,-0.00028274,-0.00000088,-0.000
 00013,-0.00000035,-0.00000071,0.00000025,-0.00000022,-0.00000150,0.000
 00477,0.00000195,-0.00000155,-0.00000005,-0.00000119,0.00000083,0.0000
 0143,-0.00000082,-0.00000453,-0.00000656,0.00000723,0.00001548,-0.0000
 1062,-0.00000834,-0.00868383,0.02831669,0.01100634,-0.00000355,-0.0000
 2041,-0.00000027,0.00001659,-0.00001643,-0.00004232,0.00005995,-0.0000
 1349,-0.00002566,-0.00001453,-0.00000375,0.00000578,-0.00001491,0.0000
 2422,0.00001716,-0.00000045,-0.00000150,0.00000429,-0.00000210,0.00000
 017,-0.00000390,-0.00000186,0.00000126,-0.00000726,-0.06538216,0.06181
 835,0.02318683,0.00141121,0.00066843,0.00113524,-0.00681294,-0.0006282
 4,0.00007999,-0.00001472,0.00000410,0.00001571,-0.00000537,0.00000027,
 -0.00000056,-0.00000887,0.00000314,0.00001274,0.00000019,-0.00000063,-
 0.00000196,0.00000348,-0.00000097,-0.00000249,0.00000231,0.00000106,0.
 00000059,0.00000136,-0.00000191,-0.00000222,0.00000984,0.00000307,-0.0
 0000101,0.00000886,-0.00001376,-0.00001145,-0.00000496,-0.00000117,-0.
 00001330,0.00000702,0.00000437,-0.00000139,0.00000340,-0.00000271,-0.0
 0000261,0.00008552,-0.00014269,0.00008273,0.00010918,-0.00008781,-0.00
 020576,-0.00054896,0.00196770,0.00073317,0.00001973,-0.00046973,-0.000
 43044,0.00018825,-0.00028816,0.00009364,-0.00007041,-0.00003502,-0.000
 11265,0.07250344,0.00000240,0.00000354,0.00000107,0.00000191,0.0000004
 8,0.00000006,-0.00000326,0.00000234,0.00000731,0.00001830,0.00000201,-
 0.00000575,0.00000180,-0.00000141,-0.00000315,0.00000251,0.00000070,-0
 .00000245,0.00043718,0.00051020,-0.00017382,0.00007389,-0.00006375,-0.
 00005137,0.00005032,0.00009016,0.00000832,0.00002924,-0.00016660,0.000
 01723,0.00010456,0.00021463,-0.00040804,-0.00045285,0.00064471,0.00086
 215,0.00000096,0.00000024,0.00000005,0.00000084,0.00000013,0.00000007,
 -0.00000028,-0.00000285,-0.00000248,0.00000065,0.00000037,0.00000071,-
 0.00000119,-0.00000108,0.00000051,-0.00001208,0.00000315,-0.00002176,-
 0.00001099,0.00001716,-0.00000420,-0.00048219,-0.00159493,-0.00031989,
 0.00001084,0.00000801,-0.00000668,-0.00000057,0.00004962,0.00006155,-0
 .00006859,0.00000710,0.00003596,0.00002010,-0.00000321,-0.00001451,0.0
 0003544,-0.00000600,-0.00002338,-0.00000094,0.00000717,-0.00000929,-0.
 00000075,-0.00000695,-0.00000482,-0.00000614,-0.00000045,-0.00000314,0
 .06351479,-0.25987321,-0.08020470,-0.00028807,0.00017475,0.00014666,0.
 00091854,0.00117127,0.00015278,0.00002269,-0.00000028,0.00000142,0.000
 00140,0.00000783,0.00001258,0.00001265,0.00000793,-0.00000620,-0.00000
 210,-0.00000283,0.00000029,-0.00000355,0.00000084,0.00000069,0.0000070
 9,0.00000379,-0.00000050,0.00000041,0.,0.00000072,-0.00000340,0.000009
 36,0.00000327,-0.00000423,-0.00000077,0.00000126,0.00000423,-0.0000009
 2,0.00000111,0.00000402,0.00000407,0.00000457,-0.00000683,0.00000115,0
 .00000141,-0.00015826,-0.00000703,0.00002800,-0.00016068,0.00032677,-0
 .00002259,0.00016073,-0.00001070,-0.00023220,0.00004800,0.00020084,0.0
 0027000,0.00001394,0.00021840,0.00012385,0.00008076,-0.00001317,-0.000
 06579,-0.07007780,0.27900962,0.00000077,0.00000004,0.00000029,-0.00000
 065,0.00000167,-0.00000091,-0.00000064,0.00000097,0.00000033,0.0000027
 7,0.00000081,0.,-0.00000066,0.00000120,-0.00000125,0.00000101,0.000000
 56,0.00000022,0.00013404,0.00025310,0.00000658,0.00002224,-0.00002342,
 0.00007954,-0.00003584,0.00000083,-0.00009458,0.00005660,0.00021534,-0
 .00001657,-0.00036143,-0.00007683,-0.00014575,0.00011637,-0.00089289,0
 .00015006,0.00000047,-0.00000049,0.00000024,0.00000045,-0.00000043,0.0
 0000041,0.00000088,-0.00000253,0.00000184,0.00000027,-0.00000109,0.000
 00094,0.00000020,-0.00000112,0.00000051,0.00001855,-0.00000138,0.00000
 580,0.00001329,0.00000067,-0.00000022,0.00071107,-0.00158600,-0.002628
 68,-0.00000392,0.00001021,0.00000909,0.00013951,-0.00005716,0.00006918
 ,-0.00001013,-0.00000014,-0.00000146,0.00000239,0.00000543,0.00000183,
 0.00000498,-0.00000421,-0.00000139,0.00000994,0.00000418,-0.00000526,0
 .00000721,-0.00001848,-0.00000696,-0.00000792,-0.00000313,0.00000665,0
 .02388514,-0.08000167,-0.07784358,-0.00034411,0.00072508,0.00025819,0.
 00073020,0.00038130,0.00039818,-0.00000432,-0.00000753,-0.00001555,-0.
 00000175,-0.00000024,-0.00000951,-0.00000774,-0.00000572,0.00000233,0.
 00000340,0.00000177,-0.00000255,-0.00000281,-0.00000022,0.00000096,-0.
 00000479,-0.00000393,0.00000065,0.00000584,0.00000811,-0.00000925,-0.0
 0001125,-0.00000549,-0.00000038,0.00000337,0.00000705,0.00002129,0.000
 00338,-0.00000571,0.00000308,-0.00000307,-0.00000085,-0.00000441,-0.00
 000552,0.00000253,0.00000173,-0.00002968,0.00028269,0.00023732,-0.0001
 0248,-0.00027738,0.00005827,0.00011315,-0.00035064,0.00042163,-0.00035
 269,0.00000941,0.00007435,0.00011771,0.00006975,-0.00003740,0.00000537
 ,0.00009662,-0.00002074,-0.02681741,0.08833861,0.07977454,-0.00000324,
 -0.00000045,-0.00000098,-0.00000094,-0.00000047,-0.00000107,0.00000247
 ,-0.00000400,-0.00000845,-0.00002241,-0.00000102,0.00001052,-0.0000005
 1,0.00000386,0.00000130,-0.00000612,0.00000306,0.00000031,-0.00101210,
 -0.00099058,0.00061156,0.00048337,-0.00055511,0.00031946,-0.00041782,-
 0.00043505,-0.00014661,0.00052648,0.00037441,-0.00027019,0.00004772,-0
 .00080010,0.00066912,-0.00508775,0.00282177,-0.00186678,-0.00000094,-0
 .00000142,0.00000049,-0.00000027,-0.00000134,0.00000052,0.00000408,-0.
 00000384,0.00000704,0.00000104,-0.00000239,0.00000094,0.00000235,-0.00
 000121,0.00000075,0.00006838,0.00000002,0.00010384,-0.00007137,0.00003
 960,0.00004944,-0.01331739,-0.02267776,0.02057016,-0.00006627,-0.00000
 351,0.00002500,0.00003325,0.00015312,0.00008763,0.00011299,-0.00001615
 ,-0.00008711,-0.00003598,0.00003348,0.00005025,-0.00004762,-0.00001593
 ,0.00003251,0.00000419,-0.00001174,0.00003068,0.00001335,0.00000744,0.
 00002353,0.00000571,-0.00001173,0.00003434,-0.07488502,-0.06083613,0.0
 5440626,0.00135520,-0.00047988,0.00132077,0.00142726,-0.00135353,-0.00
 006685,-0.00007140,-0.00001964,-0.00001735,0.00000127,-0.00004046,-0.0
 0004521,-0.00003320,-0.00003915,0.00000110,0.00000996,0.00001615,-0.00
 000281,0.00001000,0.00000096,0.00000541,-0.00002909,-0.00001639,-0.000
 00173,-0.00000556,0.00001141,-0.00000647,0.00000609,-0.00003655,-0.000
 02262,0.00000827,0.00000290,-0.00000511,-0.00000409,0.00000416,0.00000
 554,-0.00001975,-0.00001973,-0.00001788,0.00001009,-0.00000187,0.00000
 131,-0.00005565,0.00014722,0.00000871,0.00000884,0.00079310,-0.0002577
 5,0.00022312,0.00001503,-0.00034766,-0.00005309,-0.00002522,-0.0001551
 8,0.00031236,0.00023967,0.00007555,-0.00018870,0.00040790,-0.00040825,
 0.00237893,0.00571523,-0.00653082,0.08410067,-0.00000163,-0.00000204,-
 0.00000054,-0.00000119,0.00000007,-0.00000089,0.00000164,-0.00000159,-
 0.00000629,-0.00001642,0.00000061,0.00000425,-0.00000092,0.00000164,0.
 00000226,-0.00000402,0.00000116,0.00000072,0.00009109,0.00037920,0.000
 03467,0.00006388,0.00002918,0.00006487,-0.00004251,-0.00002765,-0.0000
 2920,0.00010739,0.00000906,-0.00005091,-0.00017347,0.00008708,-0.00015
 786,0.00005676,0.00080925,-0.00019125,-0.00000065,-0.00000080,0.000000
 36,-0.00000033,-0.00000078,0.00000025,0.00000197,-0.00000114,0.0000037
 6,0.00000051,-0.00000147,0.00000045,0.00000148,-0.00000036,0.00000032,
 0.00002199,0.00000399,0.00001965,-0.00000937,-0.00000180,0.00000681,0.
 00100424,0.00017571,-0.00151535,-0.00000851,-0.00001408,0.00000402,0.0
 0001247,0.00002976,0.00003200,0.00006555,-0.00001081,-0.00004174,-0.00
 001976,0.00001351,0.00002127,-0.00003851,0.00000181,0.00002192,0.00000
 417,-0.00000522,0.00001096,0.00000514,-0.00000211,0.00000032,-0.000000
 13,0.00000063,0.00000758,-0.06203984,-0.17365234,0.11417250,0.00024681
 ,0.00005305,-0.00011782,0.00047984,0.00072831,-0.00043453,-0.00001553,
 -0.00000795,-0.00001702,-0.00000411,-0.00001090,-0.00001789,-0.0000108
 5,-0.00001502,-0.00000219,0.00000414,0.00000487,-0.00000144,0.00000188
 ,0.00000124,0.00000244,-0.00001137,-0.00000724,-0.00000034,0.00000286,
 0.00000693,-0.00000426,-0.00000804,-0.00001322,-0.00000272,0.00000056,
 0.00000848,0.00001251,0.00000287,-0.00000111,0.00000772,-0.00000950,-0
 .00000705,-0.00000516,0.00000144,0.00000248,0.00000218,-0.00009614,-0.
 00001040,-0.00007678,0.00035427,0.00007055,0.00024504,-0.00012955,0.00
 015142,-0.00009753,-0.00007447,-0.00008802,0.00007126,0.00004101,0.000
 10617,-0.00021670,-0.00011195,0.00020508,-0.00022367,-0.00965826,-0.01
 798418,0.01838209,0.06727292,0.18513304,0.00000151,-0.00000084,-0.0000
 0063,-0.00000064,-0.00000009,0.00000123,0.00000009,0.00000179,0.000003
 71,0.00000950,0.00000132,-0.00000603,-0.00000104,-0.00000368,0.0000002
 2,0.00000397,-0.00000046,-0.00000044,0.00005996,-0.00032689,-0.0001196
 1,0.00011391,0.00019329,-0.00034336,0.00018570,0.00018834,0.00030608,-
 0.00003603,-0.00050591,0.00018904,0.00036663,0.00021826,-0.00026668,0.
 00045811,-0.00000428,0.00062699,0.00000060,0.00000082,-0.00000041,0.00
 000009,0.00000082,-0.00000017,-0.00000235,0.00000175,-0.00000191,-0.00
 000124,0.00000073,-0.00000060,-0.00000093,0.00000060,-0.00000049,-0.00
 006831,0.00003060,-0.00003326,-0.00001762,0.00004244,0.00001117,-0.000
 51369,0.00144545,-0.00238886,0.00003815,-0.00001080,-0.00002745,-0.000
 07335,0.00025564,0.00019407,-0.00005582,0.00001894,0.00004661,0.000017
 54,-0.00002185,-0.00002804,0.00002968,-0.00000132,-0.00001556,-0.00000
 843,0.00001079,-0.00001945,-0.00000584,0.00000593,0.00000423,-0.000000
 34,0.00000881,-0.00002707,0.05549493,0.11385678,-0.14914732,-0.0008549
 9,-0.00034811,0.00036944,-0.00020481,0.00011776,-0.00013160,0.00005941
 ,0.00001869,0.00002349,-0.00000104,0.00001612,0.00002878,0.00001125,0.
 00002111,-0.00000799,-0.00000533,-0.00000511,-0.00000099,-0.00000513,-
 0.00000255,-0.00000128,0.00001594,0.00001015,-0.00000135,0.00000015,-0
 .00000741,0.00000109,-0.00000586,0.00002639,0.00001097,-0.00000289,-0.
 00000318,-0.00000053,0.00000193,-0.00000392,-0.00000116,0.00001057,0.0
 0000682,0.00000949,-0.00000422,-0.00000322,0.00000156,0.00005868,0.000
 04460,-0.00005287,0.00024390,-0.00022681,0.00000881,-0.00009881,-0.000
 18523,0.00009051,0.00010823,-0.00012374,-0.00002846,0.00010254,-0.0002
 2479,0.00009013,-0.00019377,0.00003319,0.00061378,-0.00479858,-0.00823
 077,0.00768512,-0.06049726,-0.12611370,0.15856459,-0.00000024,0.000001
 16,0.00000332,0.00000191,-0.00000073,-0.00000192,-0.00000167,-0.000001
 54,-0.00000030,-0.00000465,0.00000026,0.00000251,0.00000827,0.00000015
 ,0.00000003,-0.00000455,-0.00000259,0.00000255,-0.00022314,-0.00081443
 ,0.00012168,0.00008468,0.00034396,-0.00045701,0.00023029,0.00021823,0.
 00038202,-0.00003060,-0.00047356,0.00032715,-0.00038084,-0.00038485,-0
 .00021038,0.00108673,0.00112309,-0.00119418,-0.00000096,0.00000014,0.0
 0000007,-0.00000067,0.00000016,-0.00000046,0.00000214,0.00000417,-0.00
 000512,0.00000161,0.00000211,-0.00000050,-0.00000063,0.00000110,-0.000
 00040,-0.00005165,0.00001398,-0.00001979,0.00000417,0.00003250,0.00003
 326,-0.01281520,-0.00431270,-0.02858717,0.00000709,-0.00001283,0.00000
 169,-0.00102233,-0.00011613,0.00151569,0.00004545,-0.00002073,-0.00004
 063,-0.00001340,0.00002092,0.00003505,-0.00002828,-0.00000062,0.000001
 52,-0.00000483,0.00000932,-0.00000718,0.00000410,-0.00000474,0.0000036
 7,-0.00000178,0.00000535,-0.00000946,-0.09187278,-0.01562357,-0.096067
 01,-0.00672491,0.00047892,0.00192092,0.00172492,-0.00121965,-0.0009280
 2,0.00003185,0.00001556,0.00002630,0.00000579,0.00000265,0.00002079,0.
 00000246,0.00001736,-0.00000264,-0.00000526,-0.00000635,0.00000620,-0.
 00000321,0.00000049,-0.00000265,0.00000599,0.00000625,-0.00000163,0.00
 000494,-0.00001100,0.00000500,-0.00000312,0.00001406,0.00000577,-0.000
 00323,0.00000048,-0.00000211,-0.00000824,0.00002023,0.00000793,0.00000
 022,-0.00001116,0.00000984,0.00002359,-0.00000127,-0.00001334,0.000230
 61,0.00029063,0.00039812,-0.00004169,0.00012637,0.00007301,0.00019249,
 -0.00021053,0.00023605,0.00014668,-0.00010886,0.00014385,-0.00090625,-
 0.00014006,-0.00197495,0.00016340,0.00018638,0.00006191,0.00337227,0.0
 0044932,0.00852906,0.00427888,0.00264015,0.01006536,0.10249360,-0.0000
 0008,-0.00000025,-0.00000021,0.00000001,-0.00000043,0.00000022,0.00000
 067,-0.00000013,0.00000052,0.00000092,-0.00000360,0.00000023,-0.000000
 68,-0.00000030,0.00000016,-0.00000021,-0.00000095,0.00000003,-0.000108
 66,-0.00008781,0.00009418,-0.00001147,0.00007181,-0.00011670,0.0000578
 8,0.00003870,0.00009285,-0.00004318,-0.00019128,0.00006073,-0.00020826
 ,-0.00006310,0.00015008,-0.00004570,-0.00007445,-0.00080161,-0.0000001
 9,0.00000043,-0.00000015,-0.00000023,0.00000029,-0.00000026,-0.0000005
 0,0.00000137,-0.00000088,-0.00000024,0.00000055,-0.00000051,-0.0000002
 2,0.00000110,-0.00000050,-0.00001296,-0.00000281,-0.00001404,-0.000002
 36,0.00001110,0.00000597,0.00052862,-0.00190395,0.00175994,0.00000305,
 -0.00000243,-0.00000981,-0.00054121,0.00006559,0.00059224,-0.00000110,
 0.00000869,0.00000673,0.00000044,-0.00000861,-0.00000581,-0.00000144,0
 .00000025,-0.00000069,-0.00000586,0.00000225,-0.00000539,-0.00000603,0
 .00001611,0.00002050,0.00001224,0.00000474,-0.00000935,-0.01568639,-0.
 05242529,-0.03411539,0.00055550,0.00022104,0.00022480,0.00032549,0.000
 37900,0.00076446,0.00002077,0.00000507,0.00000277,0.00000258,0.0000082
 7,0.00001328,0.00000964,0.00000796,-0.00000914,-0.00000383,-0.00000330
 ,0.00000242,-0.00000131,0.00000024,0.00000028,0.00000648,0.00000417,-0
 .00000113,-0.00000426,-0.00000618,0.00000590,0.00000072,0.00000766,0.0
 0000445,-0.00000362,0.00000164,-0.00000505,0.00000153,0.00000058,0.000
 00304,0.00000166,0.00000112,0.00000539,-0.00000139,-0.00000206,0.00000
 122,0.00010737,0.00024944,-0.00000764,-0.00004378,-0.00003862,0.000093
 88,-0.00014633,-0.00003440,0.00005229,0.00002674,0.00022454,0.00031349
 ,0.00004956,0.00057706,0.00008344,0.00004903,0.00015199,-0.00036589,-0
 .01267082,-0.00295804,-0.02547132,0.01033895,0.00385299,0.01977673,0.0
 1745245,0.05189228,-0.00000006,0.00000081,0.00000243,0.00000140,-0.000
 00040,-0.00000108,-0.00000160,-0.00000168,0.00000052,-0.00000252,0.000
 00165,0.00000156,0.00000460,-0.00000013,0.00000006,-0.00000231,-0.0000
 0172,0.00000090,-0.00018510,-0.00018669,0.00008014,0.00009048,0.000012
 93,-0.00006933,-0.00006578,0.00005201,0.00012983,0.00018663,-0.0001376
 9,0.00015517,0.00107426,0.00008096,-0.00065719,-0.00006083,0.00074115,
 0.00005058,-0.00000066,0.00000011,-0.00000007,-0.00000025,0.00000013,-
 0.00000042,0.00000034,0.00000161,-0.00000286,0.00000092,0.00000120,-0.
 00000024,-0.00000049,0.00000076,-0.00000030,-0.00001900,-0.00000272,-0
 .00000875,-0.00000758,0.00003005,0.00001555,0.00178584,0.00019930,0.00
 148117,0.00003473,-0.00004359,-0.00000930,0.00143277,0.00059572,-0.001
 19392,0.00002041,-0.00001619,-0.00002669,-0.00000590,0.00001417,0.0000
 2204,-0.00001485,0.00000079,0.00000528,-0.00000549,0.00000254,0.000001
 74,-0.00000033,0.00000771,0.00000505,-0.00000420,-0.00000225,-0.000014
 48,-0.09863375,-0.03485028,-0.25702280,-0.00026801,0.00015679,0.001158
 54,0.00025459,0.00015809,0.00056398,0.00002726,0.00000555,0.00001240,0
 .00000454,0.00000131,0.00001359,0.00000871,0.00001059,-0.00000649,-0.0
 0000164,-0.00000108,0.00000282,-0.00000174,-0.00000033,-0.00000047,0.0
 0000371,0.00000431,-0.00000255,-0.00000149,-0.00000585,0.00000495,-0.0
 0000218,0.00000863,0.00000121,-0.00000487,0.00000169,-0.00000365,-0.00
 000356,0.00000757,0.00000627,-0.00000157,-0.00000395,0.00000657,0.0000
 0844,0.00000065,-0.00000519,-0.00022299,0.00052037,0.00020535,-0.00010
 410,-0.00006782,-0.00002177,0.00000522,0.00009035,0.00017943,0.0001724
 1,0.00004823,0.00004170,-0.00006980,-0.00005622,0.00006859,0.00015809,
 -0.00011723,0.00021687,-0.00347932,-0.00026476,-0.00842475,-0.00768991
 ,-0.00380641,-0.01622758,0.10558652,0.03680927,0.27926559\\0.00105290,
 0.00021540,-0.00055294,0.00113982,0.00065407,0.00036537,-0.00043576,-0
 .00092337,-0.00067603,-0.00112073,-0.00088715,-0.00088329,-0.00076788,
 -0.00024560,0.00036460,-0.00013281,0.00057077,0.00085354,0.00052474,0.
 00001118,0.00211222,0.00147524,0.00153852,0.00068583,-0.00001723,0.000
 17145,-0.00012940,-0.00051767,0.00017868,-0.00152487,-0.00016366,-0.00
 021081,-0.00000472,-0.00078562,-0.00175876,0.00108200,0.00140709,0.000
 01366,-0.00091124,0.00123225,0.00087469,0.00047892,-0.00144085,-0.0000
 1564,0.00096426,-0.00017776,0.00091574,0.00141474,0.00016232,-0.000874
 71,-0.00141201,-0.00026896,-0.00031538,-0.00003334,0.00061754,0.001391
 92,-0.00116378,0.00013063,0.00030143,-0.00022088,0.00053395,-0.0002204
 7,0.00109104,-0.00113737,-0.00128282,-0.00076880,-0.00166750,0.0072656
 2,0.00967845,0.00118218,-0.00770562,-0.00988860,-0.00012770,-0.0002514
 9,0.00011288,-0.00016550,0.00156364,-0.00079759,-0.00153670,-0.0006033
 3,-0.00049895,0.00086987,-0.00070555,-0.00107520,0.00173144,-0.0001452
 3,0.00002986,-0.00073242,-0.00016580,-0.00153496,-0.00047792,0.0014728
 1,0.00075743,0.00101080,-0.00134052,-0.00014547,-0.00145917,-0.0000634
 8,0.00114691,-0.00058949,0.00056869,-0.00152650,-0.00029076,0.00068987
 ,-0.00156878,0.00094436,-0.00126711,-0.00050327,0.00119371,0.00100369,
 0.00067982,-0.00056431,0.00074219,-0.00133183,0.00084218,0.00133570,0.
 00071278,-0.00136372,-0.00007681,0.00092762,-0.00116498,-0.00019174,0.
 00126960,0.00111651,0.00100290,0.00071140,0.00087559,-0.00143216,0.000
 18203,-0.00063292,-0.00042344,-0.00153214,-0.00051286,-0.00134096,0.00
 095615,0.00164427,-0.00028505,-0.00020644,-0.00035665,0.00142145,0.000
 86903,0.00172310,-0.00007092,0.00016493,-0.00047661,-0.00116452,0.0011
 0765,-0.00063757,0.00145073,0.00054018,-0.00076767,-0.00114524,0.00103
 370,-0.00091979,-0.00024111,-0.00140184\\\@


 ALL SCIENCE IS EITHER PHYSICS, OR STAMP COLLECTING.
   --ERNEST RUTHERFORD, 1871-1937.
 Job cpu time:       1 days 17 hours 49 minutes 32.1 seconds.
 File lengths (MBytes):  RWF=   5694 Int=      0 D2E=      0 Chk=     50 Scr=      1
 Normal termination of Gaussian 09 at Tue May  8 21:35:31 2018.
 Read checkpoint file 3.chk
 Write formatted file 3.fchk
 FChkPn:  Coordinates translated and rotated.
 FChkPn:  Coordinates match /B/ after translation and rotation.
