 Entering Gaussian System, Link 0=g09
 Initial command:
 /ihome/crc/build/g09/g09-D.01/TAR/g09/l1.exe "/scratch/slurm-1115948/Gau-250832.inp" -scrdir="/scratch/slurm-1115948/"
 Entering Link 1 = /ihome/crc/build/g09/g09-D.01/TAR/g09/l1.exe PID=    250833.
  
 Copyright (c) 1988,1990,1992,1993,1995,1998,2003,2009,2013,
            Gaussian, Inc.  All Rights Reserved.
  
 This is part of the Gaussian(R) 09 program.  It is based on
 the Gaussian(R) 03 system (copyright 2003, Gaussian, Inc.),
 the Gaussian(R) 98 system (copyright 1998, Gaussian, Inc.),
 the Gaussian(R) 94 system (copyright 1995, Gaussian, Inc.),
 the Gaussian 92(TM) system (copyright 1992, Gaussian, Inc.),
 the Gaussian 90(TM) system (copyright 1990, Gaussian, Inc.),
 the Gaussian 88(TM) system (copyright 1988, Gaussian, Inc.),
 the Gaussian 86(TM) system (copyright 1986, Carnegie Mellon
 University), and the Gaussian 82(TM) system (copyright 1983,
 Carnegie Mellon University). Gaussian is a federally registered
 trademark of Gaussian, Inc.
  
 This software contains proprietary and confidential information,
 including trade secrets, belonging to Gaussian, Inc.
  
 This software is provided under written license and may be
 used, copied, transmitted, or stored only in accord with that
 written license.
  
 The following legend is applicable only to US Government
 contracts under FAR:
  
                    RESTRICTED RIGHTS LEGEND
  
 Use, reproduction and disclosure by the US Government is
 subject to restrictions as set forth in subparagraphs (a)
 and (c) of the Commercial Computer Software - Restricted
 Rights clause in FAR 52.227-19.
  
 Gaussian, Inc.
 340 Quinnipiac St., Bldg. 40, Wallingford CT 06492
  
  
 ---------------------------------------------------------------
 Warning -- This program may not be used in any manner that
 competes with the business of Gaussian, Inc. or will provide
 assistance to any competitor of Gaussian, Inc.  The licensee
 of this program is prohibited from giving any competitor of
 Gaussian, Inc. access to this program.  By using this program,
 the user acknowledges that Gaussian, Inc. is engaged in the
 business of creating and licensing software in the field of
 computational chemistry and represents and warrants to the
 licensee that it is not a competitor of Gaussian, Inc. and that
 it will not use this program in any manner prohibited above.
 ---------------------------------------------------------------
  

 Cite this work as:
 Gaussian 09, Revision D.01,
 M. J. Frisch, G. W. Trucks, H. B. Schlegel, G. E. Scuseria, 
 M. A. Robb, J. R. Cheeseman, G. Scalmani, V. Barone, B. Mennucci, 
 G. A. Petersson, H. Nakatsuji, M. Caricato, X. Li, H. P. Hratchian, 
 A. F. Izmaylov, J. Bloino, G. Zheng, J. L. Sonnenberg, M. Hada, 
 M. Ehara, K. Toyota, R. Fukuda, J. Hasegawa, M. Ishida, T. Nakajima, 
 Y. Honda, O. Kitao, H. Nakai, T. Vreven, J. A. Montgomery, Jr., 
 J. E. Peralta, F. Ogliaro, M. Bearpark, J. J. Heyd, E. Brothers, 
 K. N. Kudin, V. N. Staroverov, T. Keith, R. Kobayashi, J. Normand, 
 K. Raghavachari, A. Rendell, J. C. Burant, S. S. Iyengar, J. Tomasi, 
 M. Cossi, N. Rega, J. M. Millam, M. Klene, J. E. Knox, J. B. Cross, 
 V. Bakken, C. Adamo, J. Jaramillo, R. Gomperts, R. E. Stratmann, 
 O. Yazyev, A. J. Austin, R. Cammi, C. Pomelli, J. W. Ochterski, 
 R. L. Martin, K. Morokuma, V. G. Zakrzewski, G. A. Voth, 
 P. Salvador, J. J. Dannenberg, S. Dapprich, A. D. Daniels, 
 O. Farkas, J. B. Foresman, J. V. Ortiz, J. Cioslowski, 
 and D. J. Fox, Gaussian, Inc., Wallingford CT, 2013.
 
 ******************************************
 Gaussian 09:  EM64L-G09RevD.01 24-Apr-2013
                 2-May-2018 
 ******************************************
 %NProc=4
 Will use up to    4 processors via shared memory.
 %Mem=2GB
 %chk=1.chk
 ---------------------------------------------------------
 #p opt freq m062x/6-31+g(d) scrf=(smd,solvent=chloroform)
 ---------------------------------------------------------
 1/14=-1,18=20,19=15,26=3,38=1/1,3;
 2/9=110,12=2,17=6,18=5,40=1/2;
 3/5=1,6=6,7=11,11=2,16=1,25=1,30=1,70=32201,71=1,72=7,74=-55/1,2,3;
 4//1;
 5/5=2,38=5,53=7/2;
 6/7=2,8=2,9=2,10=2,28=1/1;
 7//1,2,3,16;
 1/14=-1,18=20,19=15,26=3/3(2);
 2/9=110/2;
 99//99;
 2/9=110/2;
 3/5=1,6=6,7=11,11=2,16=1,25=1,30=1,70=32205,71=1,72=7,74=-55/1,2,3;
 4/5=5,16=3,69=1/1;
 5/5=2,38=5,53=7/2;
 7//1,2,3,16;
 1/14=-1,18=20,19=15,26=3/3(-5);
 2/9=110/2;
 6/7=2,8=2,9=2,10=2,19=2,28=1/1;
 99/9=1/99;
 Leave Link    1 at Wed May  2 18:53:55 2018, MaxMem=   268435456 cpu:         0.1
 (Enter /ihome/crc/build/g09/g09-D.01/TAR/g09/l101.exe)
 -----
 1.g09
 -----
 Symbolic Z-matrix:
 Charge =  0 Multiplicity = 1
 C                    -2.38834   0.76576  -0.08015 
 C                    -3.55283  -0.00708  -0.04063 
 C                    -3.47054  -1.39653   0.03321 
 C                    -2.22514  -2.01959   0.06789 
 C                    -1.12984   0.1487   -0.04578 
 C                    -1.05944  -1.25159   0.02864 
 H                    -2.49396   1.84563  -0.13758 
 H                    -4.5268    0.47667  -0.06756 
 H                    -4.37839  -1.99459   0.06378 
 H                    -2.15937  -3.10357   0.1255 
 H                    -0.0942   -1.75505   0.05661 
 C                     0.14579   0.93726  -0.08599 
 O                     1.20159   0.30623  -0.0508 
 Cl                    0.0893    2.68602  -0.17937 
 
 NAtoms=     14 NQM=       14 NQMF=       0 NMMI=      0 NMMIF=      0
                NMic=       0 NMicF=      0.
                    Isotopes and Nuclear Properties:
 (Nuclear quadrupole moments (NQMom) in fm**2, nuclear magnetic moments (NMagM)
  in nuclear magnetons)

  Atom         1           2           3           4           5           6           7           8           9          10
 IAtWgt=          12          12          12          12          12          12           1           1           1           1
 AtmWgt=  12.0000000  12.0000000  12.0000000  12.0000000  12.0000000  12.0000000   1.0078250   1.0078250   1.0078250   1.0078250
 NucSpn=           0           0           0           0           0           0           1           1           1           1
 AtZEff=   0.0000000   0.0000000   0.0000000   0.0000000   0.0000000   0.0000000   0.0000000   0.0000000   0.0000000   0.0000000
 NQMom=    0.0000000   0.0000000   0.0000000   0.0000000   0.0000000   0.0000000   0.0000000   0.0000000   0.0000000   0.0000000
 NMagM=    0.0000000   0.0000000   0.0000000   0.0000000   0.0000000   0.0000000   2.7928460   2.7928460   2.7928460   2.7928460
 AtZNuc=   6.0000000   6.0000000   6.0000000   6.0000000   6.0000000   6.0000000   1.0000000   1.0000000   1.0000000   1.0000000

  Atom        11          12          13          14
 IAtWgt=           1          12          16          35
 AtmWgt=   1.0078250  12.0000000  15.9949146  34.9688527
 NucSpn=           1           0           0           3
 AtZEff=   0.0000000   0.0000000   0.0000000   0.0000000
 NQMom=    0.0000000   0.0000000   0.0000000  -8.1650000
 NMagM=    2.7928460   0.0000000   0.0000000   0.8218740
 AtZNuc=   1.0000000   6.0000000   8.0000000  17.0000000
 Leave Link  101 at Wed May  2 18:53:55 2018, MaxMem=   268435456 cpu:         0.5
 (Enter /ihome/crc/build/g09/g09-D.01/TAR/g09/l103.exe)

 GradGradGradGradGradGradGradGradGradGradGradGradGradGradGradGradGradGrad
 Berny optimization.
 Initialization pass.
                           ----------------------------
                           !    Initial Parameters    !
                           ! (Angstroms and Degrees)  !
 --------------------------                            --------------------------
 ! Name  Definition              Value          Derivative Info.                !
 --------------------------------------------------------------------------------
 ! R1    R(1,2)                  1.3982         estimate D2E/DX2                !
 ! R2    R(1,5)                  1.4021         estimate D2E/DX2                !
 ! R3    R(1,7)                  1.0865         estimate D2E/DX2                !
 ! R4    R(2,3)                  1.3938         estimate D2E/DX2                !
 ! R5    R(2,8)                  1.0878         estimate D2E/DX2                !
 ! R6    R(3,4)                  1.393          estimate D2E/DX2                !
 ! R7    R(3,9)                  1.0876         estimate D2E/DX2                !
 ! R8    R(4,6)                  1.3965         estimate D2E/DX2                !
 ! R9    R(4,10)                 1.0875         estimate D2E/DX2                !
 ! R10   R(5,6)                  1.404          estimate D2E/DX2                !
 ! R11   R(5,12)                 1.5002         estimate D2E/DX2                !
 ! R12   R(6,11)                 1.089          estimate D2E/DX2                !
 ! R13   R(12,13)                1.2305         estimate D2E/DX2                !
 ! R14   R(12,14)                1.7522         estimate D2E/DX2                !
 ! A1    A(2,1,5)              120.2403         estimate D2E/DX2                !
 ! A2    A(2,1,7)              118.0265         estimate D2E/DX2                !
 ! A3    A(5,1,7)              121.7332         estimate D2E/DX2                !
 ! A4    A(1,2,3)              120.2203         estimate D2E/DX2                !
 ! A5    A(1,2,8)              119.9468         estimate D2E/DX2                !
 ! A6    A(3,2,8)              119.8328         estimate D2E/DX2                !
 ! A7    A(2,3,4)              119.9986         estimate D2E/DX2                !
 ! A8    A(2,3,9)              120.0246         estimate D2E/DX2                !
 ! A9    A(4,3,9)              119.9768         estimate D2E/DX2                !
 ! A10   A(3,4,6)              119.9738         estimate D2E/DX2                !
 ! A11   A(3,4,10)             120.0807         estimate D2E/DX2                !
 ! A12   A(6,4,10)             119.9455         estimate D2E/DX2                !
 ! A13   A(1,5,6)              119.0282         estimate D2E/DX2                !
 ! A14   A(1,5,12)             122.089          estimate D2E/DX2                !
 ! A15   A(6,5,12)             118.8829         estimate D2E/DX2                !
 ! A16   A(4,6,5)              120.5388         estimate D2E/DX2                !
 ! A17   A(4,6,11)             119.0053         estimate D2E/DX2                !
 ! A18   A(5,6,11)             120.4559         estimate D2E/DX2                !
 ! A19   A(5,12,13)            117.3384         estimate D2E/DX2                !
 ! A20   A(5,12,14)            119.9089         estimate D2E/DX2                !
 ! A21   A(13,12,14)           122.7527         estimate D2E/DX2                !
 ! D1    D(5,1,2,3)             -0.0001         estimate D2E/DX2                !
 ! D2    D(5,1,2,8)            179.9998         estimate D2E/DX2                !
 ! D3    D(7,1,2,3)           -179.9992         estimate D2E/DX2                !
 ! D4    D(7,1,2,8)              0.0006         estimate D2E/DX2                !
 ! D5    D(2,1,5,6)             -0.0005         estimate D2E/DX2                !
 ! D6    D(2,1,5,12)           179.9997         estimate D2E/DX2                !
 ! D7    D(7,1,5,6)            179.9987         estimate D2E/DX2                !
 ! D8    D(7,1,5,12)            -0.0011         estimate D2E/DX2                !
 ! D9    D(1,2,3,4)              0.0004         estimate D2E/DX2                !
 ! D10   D(1,2,3,9)           -179.9998         estimate D2E/DX2                !
 ! D11   D(8,2,3,4)           -179.9995         estimate D2E/DX2                !
 ! D12   D(8,2,3,9)              0.0003         estimate D2E/DX2                !
 ! D13   D(2,3,4,6)             -0.0001         estimate D2E/DX2                !
 ! D14   D(2,3,4,10)           179.9999         estimate D2E/DX2                !
 ! D15   D(9,3,4,6)           -179.9999         estimate D2E/DX2                !
 ! D16   D(9,3,4,10)             0.0001         estimate D2E/DX2                !
 ! D17   D(3,4,6,5)             -0.0004         estimate D2E/DX2                !
 ! D18   D(3,4,6,11)           180.0            estimate D2E/DX2                !
 ! D19   D(10,4,6,5)           179.9996         estimate D2E/DX2                !
 ! D20   D(10,4,6,11)            0.0            estimate D2E/DX2                !
 ! D21   D(1,5,6,4)              0.0007         estimate D2E/DX2                !
 ! D22   D(1,5,6,11)          -179.9997         estimate D2E/DX2                !
 ! D23   D(12,5,6,4)          -179.9995         estimate D2E/DX2                !
 ! D24   D(12,5,6,11)            0.0001         estimate D2E/DX2                !
 ! D25   D(1,5,12,13)          179.9823         estimate D2E/DX2                !
 ! D26   D(1,5,12,14)           -0.0186         estimate D2E/DX2                !
 ! D27   D(6,5,12,13)           -0.0175         estimate D2E/DX2                !
 ! D28   D(6,5,12,14)          179.9815         estimate D2E/DX2                !
 --------------------------------------------------------------------------------
 Trust Radius=3.00D-01 FncErr=1.00D-07 GrdErr=1.00D-06
 Number of steps in this run=     73 maximum allowed number of steps=    100.
 GradGradGradGradGradGradGradGradGradGradGradGradGradGradGradGradGradGrad

 Leave Link  103 at Wed May  2 18:53:55 2018, MaxMem=   268435456 cpu:         0.0
 (Enter /ihome/crc/build/g09/g09-D.01/TAR/g09/l202.exe)
                          Input orientation:                          
 ---------------------------------------------------------------------
 Center     Atomic      Atomic             Coordinates (Angstroms)
 Number     Number       Type             X           Y           Z
 ---------------------------------------------------------------------
      1          6           0       -2.388336    0.765755   -0.080146
      2          6           0       -3.552834   -0.007083   -0.040633
      3          6           0       -3.470536   -1.396531    0.033211
      4          6           0       -2.225138   -2.019590    0.067890
      5          6           0       -1.129837    0.148695   -0.045776
      6          6           0       -1.059444   -1.251590    0.028640
      7          1           0       -2.493964    1.845627   -0.137578
      8          1           0       -4.526802    0.476667   -0.067559
      9          1           0       -4.378393   -1.994590    0.063777
     10          1           0       -2.159372   -3.103574    0.125503
     11          1           0       -0.094202   -1.755050    0.056608
     12          6           0        0.145792    0.937261   -0.085987
     13          8           0        1.201594    0.306230   -0.050798
     14         17           0        0.089296    2.686019   -0.179370
 ---------------------------------------------------------------------
                    Distance matrix (angstroms):
                    1          2          3          4          5
     1  C    0.000000
     2  C    1.398176   0.000000
     3  C    2.420638   1.393841   0.000000
     4  C    2.794046   2.413449   1.392990   0.000000
     5  C    1.402057   2.428005   2.805857   2.431885   0.000000
     6  C    2.418154   2.787578   2.415448   1.396497   1.404027
     7  H    1.086544   2.136150   3.390347   3.879998   2.179185
     8  H    2.157954   1.087820   2.152841   3.398132   3.412830
     9  H    3.405957   2.154677   1.087572   2.153404   3.893429
    10  H    3.881549   3.399646   2.154452   1.087504   3.415631
    11  H    3.411190   3.876465   3.395396   2.147323   2.169624
    12  C    2.539932   3.817548   4.305650   3.793145   1.500227
    13  O    3.619340   4.764751   4.973454   4.143189   2.336752
    14  Cl   3.136227   4.531794   5.420776   5.249809   2.818181
                    6          7          8          9         10
     6  C    0.000000
     7  H    3.417343   0.000000
     8  H    3.875396   2.451812   0.000000
     9  H    3.401279   4.282392   2.479190   0.000000
    10  H    2.156169   4.967469   4.296524   2.481473   0.000000
    11  H    1.089012   4.331448   4.964265   4.290889   2.467426
    12  C    2.501360   2.792150   4.695276   5.393183   4.656915
    13  O    2.746891   4.004300   5.730955   6.036816   4.791026
    14  Cl   4.107023   2.716843   5.118799   6.475142   6.218428
                   11         12         13         14
    11  H    0.000000
    12  C    2.706745   0.000000
    13  O    2.437108   1.230510   0.000000
    14  Cl   4.451118   1.752161   2.630044   0.000000
 Stoichiometry    C7H5ClO
 Framework group  C1[X(C7H5ClO)]
 Deg. of freedom    36
 Full point group                 C1      NOp   1
 Largest Abelian subgroup         C1      NOp   1
 Largest concise Abelian subgroup C1      NOp   1
                         Standard orientation:                         
 ---------------------------------------------------------------------
 Center     Atomic      Atomic             Coordinates (Angstroms)
 Number     Number       Type             X           Y           Z
 ---------------------------------------------------------------------
      1          6           0        0.578801   -1.137602    0.000189
      2          6           0        1.949695   -1.412456    0.000140
      3          6           0        2.874328   -0.369458   -0.000049
      4          6           0        2.433617    0.951979   -0.000181
      5          6           0        0.124575    0.188838    0.000051
      6          6           0        1.065300    1.231108   -0.000127
      7          1           0       -0.110328   -1.977650    0.000351
      8          1           0        2.296841   -2.443399    0.000251
      9          1           0        3.939942   -0.586896   -0.000090
     10          1           0        3.153869    1.766782   -0.000327
     11          1           0        0.738273    2.269858   -0.000232
     12          6           0       -1.336100    0.531052    0.000091
     13          8           0       -1.636968    1.724214    0.000297
     14         17           0       -2.533185   -0.748422   -0.000177
 ---------------------------------------------------------------------
 Rotational constants (GHZ):      3.1635264      0.9142230      0.7092561
 Leave Link  202 at Wed May  2 18:53:55 2018, MaxMem=   268435456 cpu:         0.2
 (Enter /ihome/crc/build/g09/g09-D.01/TAR/g09/l301.exe)
 Standard basis: 6-31+G(d) (6D, 7F)
 Ernie: Thresh=  0.10000D-02 Tol=  0.10000D-05 Strict=F.
 There are   185 symmetry adapted cartesian basis functions of A   symmetry.
 There are   185 symmetry adapted basis functions of A   symmetry.
   185 basis functions,   332 primitive gaussians,   185 cartesian basis functions
    36 alpha electrons       36 beta electrons
       nuclear repulsion energy       459.4374326769 Hartrees.
 IExCor= 4336 DFT=T Ex+Corr=M062X ExCW=0 ScaHFX=  0.540000
 ScaDFX=  1.000000  1.000000  1.000000  1.000000 ScalE2=  1.000000  1.000000
 IRadAn=      0 IRanWt=     -1 IRanGd=            0 ICorTp=0 IEmpDi=  4
 NAtoms=   14 NActive=   14 NUniq=   14 SFac= 1.00D+00 NAtFMM=   60 NAOKFM=F Big=F
 Integral buffers will be    131072 words long.
 Raffenetti 2 integral format.
 Two-electron integral symmetry is turned on.
 ------------------------------------------------------------------------------
 Polarizable Continuum Model (PCM)
 =================================
 Model                : PCM (using non-symmetric T matrix).
 Atomic radii         : SMD-Coulomb.
 Polarization charges : Total charges.
 Charge compensation  : None.
 Solution method      : On-the-fly selection.
 Cavity type          : VdW (van der Waals Surface) (Alpha=1.000).
 Cavity algorithm     : GePol (No added spheres)
                        Default sphere list used, NSphG=   14.
                        Lebedev-Laikov grids with approx.  5.0 points / Ang**2.
                        Smoothing algorithm: Karplus/York (Gamma=1.0000).
                        Polarization charges: spherical gaussians, with
                                              point-specific exponents (IZeta= 3).
                        Self-potential: point-specific (ISelfS= 7).
                        Self-field    : sphere-specific E.n sum rule (ISelfD= 2).
 1st derivatives      : Analytical E(r).r(x)/FMM algorithm (CHGder, D1EAlg=3).
                        Cavity 1st derivative terms included.
 Solvent              : Chloroform, Eps=   4.711300 Eps(inf)=   2.090627
 ------------------------------------------------------------------------------
 Spheres list:
 ISph  on   Nord     Re0    Alpha      Xe            Ye            Ze
    1   C      1    1.8500  1.000      0.578801     -1.137602      0.000189
    2   C      2    1.8500  1.000      1.949695     -1.412456      0.000140
    3   C      3    1.8500  1.000      2.874328     -0.369458     -0.000049
    4   C      4    1.8500  1.000      2.433617      0.951979     -0.000181
    5   C      5    1.8500  1.000      0.124575      0.188838      0.000051
    6   C      6    1.8500  1.000      1.065300      1.231108     -0.000127
    7   H      7    1.2000  1.000     -0.110328     -1.977650      0.000351
    8   H      8    1.2000  1.000      2.296841     -2.443399      0.000251
    9   H      9    1.2000  1.000      3.939942     -0.586896     -0.000090
   10   H     10    1.2000  1.000      3.153869      1.766782     -0.000327
   11   H     11    1.2000  1.000      0.738273      2.269858     -0.000232
   12   C     12    1.8500  1.000     -1.336100      0.531052      0.000091
   13   O     13    2.0240  1.000     -1.636968      1.724214      0.000297
   14  Cl     14    2.3800  1.000     -2.533185     -0.748422     -0.000177
 ------------------------------------------------------------------------------
 GePol: Number of generator spheres                  =      14
 GePol: Total number of spheres                      =      14
 GePol: Number of exposed spheres                    =      14 (100.00%)
 GePol: Number of points                             =    1403
 GePol: Average weight of points                     =       0.12
 GePol: Minimum weight of points                     =   0.26D-07
 GePol: Maximum weight of points                     =    0.18790
 GePol: Number of points with low weight             =      42
 GePol: Fraction of low-weight points (<1% of avg)   =       2.99%
 GePol: Cavity surface area                          =    173.390 Ang**2
 GePol: Cavity volume                                =    162.117 Ang**3
 ------------------------------------------------------------------------------
 Atomic radii for non-electrostatic terms: SMD-CDS.
 ------------------------------------------------------------------------------
 PCM non-electrostatic energy =        -0.0053148893 Hartrees.
 Nuclear repulsion after PCM non-electrostatic terms =      459.4321177876 Hartrees.
 Leave Link  301 at Wed May  2 18:53:56 2018, MaxMem=   268435456 cpu:         0.2
 (Enter /ihome/crc/build/g09/g09-D.01/TAR/g09/l302.exe)
 NPDir=0 NMtPBC=     1 NCelOv=     1 NCel=       1 NClECP=     1 NCelD=      1
         NCelK=      1 NCelE2=     1 NClLst=     1 CellRange=     0.0.
 One-electron integrals computed using PRISM.
 NBasis=   185 RedAO= T EigKep=  3.99D-06  NBF=   185
 NBsUse=   185 1.00D-06 EigRej= -1.00D+00 NBFU=   185
 Precomputing XC quadrature grid using
 IXCGrd= 4 IRadAn=           0 IRanWt=          -1 IRanGd=           0 AccXCQ= 0.00D+00.
 Generated NRdTot=       0 NPtTot=           0 NUsed=           0 NTot=          32
 NSgBfM=   185   185   185   185   185 MxSgAt=    14 MxSgA2=    14.
 Leave Link  302 at Wed May  2 18:53:56 2018, MaxMem=   268435456 cpu:         0.6
 (Enter /ihome/crc/build/g09/g09-D.01/TAR/g09/l303.exe)
 DipDrv:  MaxL=1.
 Leave Link  303 at Wed May  2 18:53:56 2018, MaxMem=   268435456 cpu:         0.3
 (Enter /ihome/crc/build/g09/g09-D.01/TAR/g09/l401.exe)
 ExpMin= 4.38D-02 ExpMax= 2.52D+04 ExpMxC= 3.78D+03 IAcc=2 IRadAn=         4 AccDes= 0.00D+00
 Harris functional with IExCor= 1009 and IRadAn=       4 diagonalized for initial guess.
 HarFok:  IExCor= 1009 AccDes= 0.00D+00 IRadAn=         4 IDoV= 1 UseB2=F ITyADJ=14
 ICtDFT=  3500011 ScaDFX=  1.000000  1.000000  1.000000  1.000000
 FoFCou: FMM=F IPFlag=           0 FMFlag=      100000 FMFlg1=           0
         NFxFlg=           0 DoJE=T BraDBF=F KetDBF=T FulRan=T
         wScrn=  0.000000 ICntrl=     500 IOpCl=  0 I1Cent=   200000004 NGrid=           0
         NMat0=    1 NMatS0=      1 NMatT0=    0 NMatD0=    1 NMtDS0=    0 NMtDT0=    0
 Petite list used in FoFCou.
 Harris En= -804.626448542618    
 JPrj=0 DoOrth=F DoCkMO=F.
 Leave Link  401 at Wed May  2 18:53:57 2018, MaxMem=   268435456 cpu:         2.0
 (Enter /ihome/crc/build/g09/g09-D.01/TAR/g09/l502.exe)
 Closed shell SCF:
 Using DIIS extrapolation, IDIIS=  1040.
 Integral symmetry usage will be decided dynamically.
 Keep R1 ints in memory in canonical form, NReq=153368734.
 IVT=      123714 IEndB=      123714 NGot=   268435456 MDV=   120297128
 LenX=   120297128 LenY=   120262462
 Requested convergence on RMS density matrix=1.00D-08 within 128 cycles.
 Requested convergence on MAX density matrix=1.00D-06.
 Requested convergence on             energy=1.00D-06.
 No special actions if energy rises.
 FoFCou: FMM=F IPFlag=           0 FMFlag=           0 FMFlg1=           0
         NFxFlg=           0 DoJE=F BraDBF=F KetDBF=F FulRan=T
         wScrn=  0.000000 ICntrl=     600 IOpCl=  0 I1Cent=           0 NGrid=           0
         NMat0=    1 NMatS0=  17205 NMatT0=    0 NMatD0=    1 NMtDS0=    0 NMtDT0=    0
 Symmetry not used in FoFCou.

 Cycle   1  Pass 1  IDiag  1:
 Inv3:  Mode=1 IEnd=     5905227.
 Iteration    1 A*A^-1 deviation from unit magnitude is 5.55D-15 for    114.
 Iteration    1 A*A^-1 deviation from orthogonality  is 2.84D-15 for    793    327.
 Iteration    1 A^-1*A deviation from unit magnitude is 6.00D-15 for    275.
 Iteration    1 A^-1*A deviation from orthogonality  is 2.44D-15 for   1261    968.
 E= -804.789475957468    
 DIIS: error= 3.44D-02 at cycle   1 NSaved=   1.
 NSaved= 1 IEnMin= 1 EnMin= -804.789475957468     IErMin= 1 ErrMin= 3.44D-02
 ErrMax= 3.44D-02  0.00D+00 EMaxC= 1.00D-01 BMatC= 2.64D-01 BMatP= 2.64D-01
 IDIUse=3 WtCom= 6.56D-01 WtEn= 3.44D-01
 Coeff-Com:  0.100D+01
 Coeff-En:   0.100D+01
 Coeff:      0.100D+01
 Gap=     0.512 Goal=   None    Shift=    0.000
 GapD=    0.512 DampG=2.000 DampE=0.500 DampFc=1.0000 IDamp=-1.
 RMSDP=1.96D-02 MaxDP=9.35D-01              OVMax= 2.79D-01

 Cycle   2  Pass 1  IDiag  1:
 E= -804.705037490675     Delta-E=        0.084438466793 Rises=F Damp=F
 DIIS: error= 4.82D-02 at cycle   2 NSaved=   2.
 NSaved= 2 IEnMin= 1 EnMin= -804.789475957468     IErMin= 1 ErrMin= 3.44D-02
 ErrMax= 4.82D-02  0.00D+00 EMaxC= 1.00D-01 BMatC= 3.76D-01 BMatP= 2.64D-01
 IDIUse=2 WtCom= 0.00D+00 WtEn= 1.00D+00
 Coeff-En:   0.578D+00 0.422D+00
 Coeff:      0.578D+00 0.422D+00
 Gap=     0.250 Goal=   None    Shift=    0.000
 RMSDP=1.71D-02 MaxDP=1.31D+00 DE= 8.44D-02 OVMax= 1.58D-01

 Cycle   3  Pass 1  IDiag  1:
 E= -805.009159606482     Delta-E=       -0.304122115807 Rises=F Damp=F
 DIIS: error= 1.10D-02 at cycle   3 NSaved=   3.
 NSaved= 3 IEnMin= 3 EnMin= -805.009159606482     IErMin= 3 ErrMin= 1.10D-02
 ErrMax= 1.10D-02  0.00D+00 EMaxC= 1.00D-01 BMatC= 1.41D-02 BMatP= 2.64D-01
 IDIUse=3 WtCom= 8.90D-01 WtEn= 1.10D-01
 Coeff-Com:  0.162D+00 0.179D+00 0.658D+00
 Coeff-En:   0.000D+00 0.000D+00 0.100D+01
 Coeff:      0.145D+00 0.160D+00 0.696D+00
 Gap=     0.279 Goal=   None    Shift=    0.000
 RMSDP=3.01D-03 MaxDP=1.26D-01 DE=-3.04D-01 OVMax= 3.56D-02

 Cycle   4  Pass 1  IDiag  1:
 E= -805.018860431704     Delta-E=       -0.009700825223 Rises=F Damp=F
 DIIS: error= 3.66D-03 at cycle   4 NSaved=   4.
 NSaved= 4 IEnMin= 4 EnMin= -805.018860431704     IErMin= 4 ErrMin= 3.66D-03
 ErrMax= 3.66D-03  0.00D+00 EMaxC= 1.00D-01 BMatC= 3.21D-03 BMatP= 1.41D-02
 IDIUse=3 WtCom= 9.63D-01 WtEn= 3.66D-02
 Coeff-Com:  0.389D-03 0.630D-02 0.328D+00 0.666D+00
 Coeff-En:   0.000D+00 0.000D+00 0.163D+00 0.837D+00
 Coeff:      0.374D-03 0.607D-02 0.322D+00 0.672D+00
 Gap=     0.271 Goal=   None    Shift=    0.000
 RMSDP=1.09D-03 MaxDP=5.05D-02 DE=-9.70D-03 OVMax= 1.14D-02

 Cycle   5  Pass 1  IDiag  1:
 E= -805.021631242150     Delta-E=       -0.002770810446 Rises=F Damp=F
 DIIS: error= 2.94D-04 at cycle   5 NSaved=   5.
 NSaved= 5 IEnMin= 5 EnMin= -805.021631242150     IErMin= 5 ErrMin= 2.94D-04
 ErrMax= 2.94D-04  0.00D+00 EMaxC= 1.00D-01 BMatC= 2.11D-05 BMatP= 3.21D-03
 IDIUse=3 WtCom= 9.97D-01 WtEn= 2.94D-03
 Coeff-Com: -0.332D-02-0.425D-02 0.570D-01 0.145D+00 0.805D+00
 Coeff-En:   0.000D+00 0.000D+00 0.000D+00 0.000D+00 0.100D+01
 Coeff:     -0.331D-02-0.424D-02 0.568D-01 0.145D+00 0.806D+00
 Gap=     0.272 Goal=   None    Shift=    0.000
 RMSDP=1.80D-04 MaxDP=1.17D-02 DE=-2.77D-03 OVMax= 2.92D-03

 Cycle   6  Pass 1  IDiag  1:
 E= -805.021663214603     Delta-E=       -0.000031972453 Rises=F Damp=F
 DIIS: error= 1.56D-04 at cycle   6 NSaved=   6.
 NSaved= 6 IEnMin= 6 EnMin= -805.021663214603     IErMin= 6 ErrMin= 1.56D-04
 ErrMax= 1.56D-04  0.00D+00 EMaxC= 1.00D-01 BMatC= 5.08D-06 BMatP= 2.11D-05
 IDIUse=3 WtCom= 9.98D-01 WtEn= 1.56D-03
 Coeff-Com: -0.124D-02-0.291D-02-0.545D-02-0.844D-02 0.249D+00 0.769D+00
 Coeff-En:   0.000D+00 0.000D+00 0.000D+00 0.000D+00 0.000D+00 0.100D+01
 Coeff:     -0.124D-02-0.290D-02-0.544D-02-0.842D-02 0.248D+00 0.770D+00
 Gap=     0.272 Goal=   None    Shift=    0.000
 RMSDP=8.64D-05 MaxDP=5.94D-03 DE=-3.20D-05 OVMax= 1.23D-03

 Cycle   7  Pass 1  IDiag  1:
 E= -805.021670456010     Delta-E=       -0.000007241407 Rises=F Damp=F
 DIIS: error= 7.24D-05 at cycle   7 NSaved=   7.
 NSaved= 7 IEnMin= 7 EnMin= -805.021670456010     IErMin= 7 ErrMin= 7.24D-05
 ErrMax= 7.24D-05  0.00D+00 EMaxC= 1.00D-01 BMatC= 1.05D-06 BMatP= 5.08D-06
 IDIUse=1 WtCom= 1.00D+00 WtEn= 0.00D+00
 Coeff-Com:  0.234D-03-0.585D-03-0.133D-01-0.360D-01-0.795D-01 0.314D+00
 Coeff-Com:  0.815D+00
 Coeff:      0.234D-03-0.585D-03-0.133D-01-0.360D-01-0.795D-01 0.314D+00
 Coeff:      0.815D+00
 Gap=     0.272 Goal=   None    Shift=    0.000
 RMSDP=3.79D-05 MaxDP=1.98D-03 DE=-7.24D-06 OVMax= 7.86D-04

 Cycle   8  Pass 1  IDiag  1:
 E= -805.021672178440     Delta-E=       -0.000001722430 Rises=F Damp=F
 DIIS: error= 2.20D-05 at cycle   8 NSaved=   8.
 NSaved= 8 IEnMin= 8 EnMin= -805.021672178440     IErMin= 8 ErrMin= 2.20D-05
 ErrMax= 2.20D-05  0.00D+00 EMaxC= 1.00D-01 BMatC= 7.40D-08 BMatP= 1.05D-06
 IDIUse=1 WtCom= 1.00D+00 WtEn= 0.00D+00
 Coeff-Com:  0.160D-03-0.228D-04-0.286D-02-0.984D-02-0.409D-01 0.377D-01
 Coeff-Com:  0.245D+00 0.771D+00
 Coeff:      0.160D-03-0.228D-04-0.286D-02-0.984D-02-0.409D-01 0.377D-01
 Coeff:      0.245D+00 0.771D+00
 Gap=     0.272 Goal=   None    Shift=    0.000
 RMSDP=1.08D-05 MaxDP=3.80D-04 DE=-1.72D-06 OVMax= 1.70D-04

 Cycle   9  Pass 1  IDiag  1:
 E= -805.021672279026     Delta-E=       -0.000000100586 Rises=F Damp=F
 DIIS: error= 6.80D-06 at cycle   9 NSaved=   9.
 NSaved= 9 IEnMin= 9 EnMin= -805.021672279026     IErMin= 9 ErrMin= 6.80D-06
 ErrMax= 6.80D-06  0.00D+00 EMaxC= 1.00D-01 BMatC= 1.36D-08 BMatP= 7.40D-08
 IDIUse=1 WtCom= 1.00D+00 WtEn= 0.00D+00
 Coeff-Com:  0.370D-04 0.730D-04 0.837D-03 0.106D-02-0.526D-02-0.310D-01
 Coeff-Com: -0.326D-01 0.318D+00 0.749D+00
 Coeff:      0.370D-04 0.730D-04 0.837D-03 0.106D-02-0.526D-02-0.310D-01
 Coeff:     -0.326D-01 0.318D+00 0.749D+00
 Gap=     0.272 Goal=   None    Shift=    0.000
 RMSDP=6.34D-06 MaxDP=3.30D-04 DE=-1.01D-07 OVMax= 7.17D-05

 Cycle  10  Pass 1  IDiag  1:
 E= -805.021672297306     Delta-E=       -0.000000018280 Rises=F Damp=F
 DIIS: error= 1.74D-06 at cycle  10 NSaved=  10.
 NSaved=10 IEnMin=10 EnMin= -805.021672297306     IErMin=10 ErrMin= 1.74D-06
 ErrMax= 1.74D-06  0.00D+00 EMaxC= 1.00D-01 BMatC= 5.38D-10 BMatP= 1.36D-08
 IDIUse=1 WtCom= 1.00D+00 WtEn= 0.00D+00
 Coeff-Com: -0.159D-05 0.196D-04 0.513D-03 0.109D-02 0.148D-02-0.105D-01
 Coeff-Com: -0.289D-01 0.369D-01 0.206D+00 0.793D+00
 Coeff:     -0.159D-05 0.196D-04 0.513D-03 0.109D-02 0.148D-02-0.105D-01
 Coeff:     -0.289D-01 0.369D-01 0.206D+00 0.793D+00
 Gap=     0.272 Goal=   None    Shift=    0.000
 RMSDP=1.14D-06 MaxDP=4.84D-05 DE=-1.83D-08 OVMax= 1.49D-05

 Cycle  11  Pass 1  IDiag  1:
 E= -805.021672298096     Delta-E=       -0.000000000790 Rises=F Damp=F
 DIIS: error= 5.36D-07 at cycle  11 NSaved=  11.
 NSaved=11 IEnMin=11 EnMin= -805.021672298096     IErMin=11 ErrMin= 5.36D-07
 ErrMax= 5.36D-07  0.00D+00 EMaxC= 1.00D-01 BMatC= 6.36D-11 BMatP= 5.38D-10
 IDIUse=1 WtCom= 1.00D+00 WtEn= 0.00D+00
 Coeff-Com: -0.301D-05-0.450D-05 0.403D-04 0.120D-03 0.832D-03 0.113D-02
 Coeff-Com: -0.414D-02-0.226D-01-0.281D-01 0.211D+00 0.842D+00
 Coeff:     -0.301D-05-0.450D-05 0.403D-04 0.120D-03 0.832D-03 0.113D-02
 Coeff:     -0.414D-02-0.226D-01-0.281D-01 0.211D+00 0.842D+00
 Gap=     0.272 Goal=   None    Shift=    0.000
 RMSDP=4.46D-07 MaxDP=2.83D-05 DE=-7.90D-10 OVMax= 4.57D-06

 Cycle  12  Pass 1  IDiag  1:
 E= -805.021672298173     Delta-E=       -0.000000000077 Rises=F Damp=F
 DIIS: error= 2.40D-07 at cycle  12 NSaved=  12.
 NSaved=12 IEnMin=12 EnMin= -805.021672298173     IErMin=12 ErrMin= 2.40D-07
 ErrMax= 2.40D-07  0.00D+00 EMaxC= 1.00D-01 BMatC= 8.57D-12 BMatP= 6.36D-11
 IDIUse=1 WtCom= 1.00D+00 WtEn= 0.00D+00
 Coeff-Com: -0.889D-06-0.370D-05-0.286D-04-0.560D-04 0.178D-03 0.131D-02
 Coeff-Com:  0.747D-03-0.112D-01-0.305D-01 0.137D-01 0.308D+00 0.718D+00
 Coeff:     -0.889D-06-0.370D-05-0.286D-04-0.560D-04 0.178D-03 0.131D-02
 Coeff:      0.747D-03-0.112D-01-0.305D-01 0.137D-01 0.308D+00 0.718D+00
 Gap=     0.272 Goal=   None    Shift=    0.000
 RMSDP=1.05D-07 MaxDP=3.82D-06 DE=-7.71D-11 OVMax= 2.62D-06

 Cycle  13  Pass 1  IDiag  1:
 E= -805.021672298196     Delta-E=       -0.000000000023 Rises=F Damp=F
 DIIS: error= 1.27D-07 at cycle  13 NSaved=  13.
 NSaved=13 IEnMin=13 EnMin= -805.021672298196     IErMin=13 ErrMin= 1.27D-07
 ErrMax= 1.27D-07  0.00D+00 EMaxC= 1.00D-01 BMatC= 1.09D-12 BMatP= 8.57D-12
 IDIUse=1 WtCom= 1.00D+00 WtEn= 0.00D+00
 Coeff-Com:  0.152D-06-0.173D-06-0.886D-05-0.250D-04-0.517D-04 0.867D-04
 Coeff-Com:  0.588D-03 0.106D-02-0.338D-02-0.230D-01-0.643D-01 0.214D+00
 Coeff-Com:  0.875D+00
 Coeff:      0.152D-06-0.173D-06-0.886D-05-0.250D-04-0.517D-04 0.867D-04
 Coeff:      0.588D-03 0.106D-02-0.338D-02-0.230D-01-0.643D-01 0.214D+00
 Coeff:      0.875D+00
 Gap=     0.272 Goal=   None    Shift=    0.000
 RMSDP=3.81D-08 MaxDP=1.09D-06 DE=-2.30D-11 OVMax= 1.05D-06

 Cycle  14  Pass 1  IDiag  1:
 E= -805.021672298190     Delta-E=        0.000000000007 Rises=F Damp=F
 DIIS: error= 2.77D-08 at cycle  14 NSaved=  14.
 NSaved=14 IEnMin=13 EnMin= -805.021672298196     IErMin=14 ErrMin= 2.77D-08
 ErrMax= 2.77D-08  0.00D+00 EMaxC= 1.00D-01 BMatC= 9.97D-14 BMatP= 1.09D-12
 IDIUse=1 WtCom= 1.00D+00 WtEn= 0.00D+00
 Coeff-Com:  0.136D-06 0.367D-06-0.393D-06-0.340D-05-0.346D-04-0.105D-03
 Coeff-Com:  0.151D-03 0.157D-02 0.183D-02-0.932D-02-0.593D-01 0.516D-02
 Coeff-Com:  0.275D+00 0.785D+00
 Coeff:      0.136D-06 0.367D-06-0.393D-06-0.340D-05-0.346D-04-0.105D-03
 Coeff:      0.151D-03 0.157D-02 0.183D-02-0.932D-02-0.593D-01 0.516D-02
 Coeff:      0.275D+00 0.785D+00
 Gap=     0.272 Goal=   None    Shift=    0.000
 RMSDP=1.16D-08 MaxDP=4.66D-07 DE= 6.59D-12 OVMax= 2.89D-07

 Cycle  15  Pass 1  IDiag  1:
 E= -805.021672298192     Delta-E=       -0.000000000002 Rises=F Damp=F
 DIIS: error= 1.62D-08 at cycle  15 NSaved=  15.
 NSaved=15 IEnMin=13 EnMin= -805.021672298196     IErMin=15 ErrMin= 1.62D-08
 ErrMax= 1.62D-08  0.00D+00 EMaxC= 1.00D-01 BMatC= 1.36D-14 BMatP= 9.97D-14
 IDIUse=1 WtCom= 1.00D+00 WtEn= 0.00D+00
 Coeff-Com:  0.226D-07 0.165D-06 0.996D-06 0.208D-05-0.501D-05-0.516D-04
 Coeff-Com: -0.275D-04 0.404D-03 0.110D-02 0.684D-03-0.116D-01-0.220D-01
 Coeff-Com: -0.151D-01 0.292D+00 0.754D+00
 Coeff:      0.226D-07 0.165D-06 0.996D-06 0.208D-05-0.501D-05-0.516D-04
 Coeff:     -0.275D-04 0.404D-03 0.110D-02 0.684D-03-0.116D-01-0.220D-01
 Coeff:     -0.151D-01 0.292D+00 0.754D+00
 Gap=     0.272 Goal=   None    Shift=    0.000
 RMSDP=3.13D-09 MaxDP=1.51D-07 DE=-2.27D-12 OVMax= 1.28D-07

 Error on total polarization charges =  0.02359
 SCF Done:  E(RM062X) =  -805.021672298     A.U. after   15 cycles
            NFock= 15  Conv=0.31D-08     -V/T= 2.0055
 KE= 8.006471687680D+02 PE=-2.813511066238D+03 EE= 7.484101073843D+02
 SMD-CDS (non-electrostatic) energy       (kcal/mol) =      -3.34
 (included in total energy above)
 Leave Link  502 at Wed May  2 18:54:21 2018, MaxMem=   268435456 cpu:        83.4
 (Enter /ihome/crc/build/g09/g09-D.01/TAR/g09/l601.exe)
 Copying SCF densities to generalized density rwf, IOpCl= 0 IROHF=0.

 **********************************************************************

            Population analysis using the SCF density.

 **********************************************************************

 Orbital symmetries:
       Occupied  (A) (A) (A) (A) (A) (A) (A) (A) (A) (A) (A) (A)
                 (A) (A) (A) (A) (A) (A) (A) (A) (A) (A) (A) (A)
                 (A) (A) (A) (A) (A) (A) (A) (A) (A) (A) (A) (A)
       Virtual   (A) (A) (A) (A) (A) (A) (A) (A) (A) (A) (A) (A)
                 (A) (A) (A) (A) (A) (A) (A) (A) (A) (A) (A) (A)
                 (A) (A) (A) (A) (A) (A) (A) (A) (A) (A) (A) (A)
                 (A) (A) (A) (A) (A) (A) (A) (A) (A) (A) (A) (A)
                 (A) (A) (A) (A) (A) (A) (A) (A) (A) (A) (A) (A)
                 (A) (A) (A) (A) (A) (A) (A) (A) (A) (A) (A) (A)
                 (A) (A) (A) (A) (A) (A) (A) (A) (A) (A) (A) (A)
                 (A) (A) (A) (A) (A) (A) (A) (A) (A) (A) (A) (A)
                 (A) (A) (A) (A) (A) (A) (A) (A) (A) (A) (A) (A)
                 (A) (A) (A) (A) (A) (A) (A) (A) (A) (A) (A) (A)
                 (A) (A) (A) (A) (A) (A) (A) (A) (A) (A) (A) (A)
                 (A) (A) (A) (A) (A) (A) (A) (A) (A) (A) (A) (A)
                 (A) (A) (A) (A) (A)
 The electronic state is 1-A.
 Alpha  occ. eigenvalues -- -102.69262 -19.67712 -10.71652 -10.58988 -10.57587
 Alpha  occ. eigenvalues --  -10.57462 -10.57069 -10.56692 -10.56683  -9.84031
 Alpha  occ. eigenvalues --   -7.56399  -7.55799  -7.55721  -1.19919  -0.98501
 Alpha  occ. eigenvalues --   -0.96740  -0.87193  -0.85724  -0.73925  -0.70264
 Alpha  occ. eigenvalues --   -0.65393  -0.60980  -0.56486  -0.55104  -0.52207
 Alpha  occ. eigenvalues --   -0.52192  -0.51610  -0.49944  -0.44728  -0.43169
 Alpha  occ. eigenvalues --   -0.41629  -0.40227  -0.40112  -0.36977  -0.32598
 Alpha  occ. eigenvalues --   -0.32063
 Alpha virt. eigenvalues --   -0.04854   0.00818   0.01405   0.03184   0.03932
 Alpha virt. eigenvalues --    0.04837   0.05162   0.05236   0.06001   0.06225
 Alpha virt. eigenvalues --    0.07043   0.08369   0.08946   0.09298   0.09370
 Alpha virt. eigenvalues --    0.10941   0.12443   0.12803   0.13301   0.13388
 Alpha virt. eigenvalues --    0.15192   0.16129   0.16376   0.16904   0.17198
 Alpha virt. eigenvalues --    0.17239   0.19292   0.20511   0.20895   0.21445
 Alpha virt. eigenvalues --    0.22731   0.23277   0.23522   0.24263   0.25377
 Alpha virt. eigenvalues --    0.26088   0.26685   0.27118   0.27857   0.29507
 Alpha virt. eigenvalues --    0.30357   0.30627   0.31802   0.33331   0.34063
 Alpha virt. eigenvalues --    0.35203   0.35481   0.37743   0.38794   0.41446
 Alpha virt. eigenvalues --    0.44220   0.48707   0.59543   0.60887   0.63013
 Alpha virt. eigenvalues --    0.63909   0.68000   0.68581   0.70591   0.71294
 Alpha virt. eigenvalues --    0.72503   0.75330   0.75851   0.77157   0.77724
 Alpha virt. eigenvalues --    0.79330   0.79399   0.80118   0.80432   0.83959
 Alpha virt. eigenvalues --    0.85316   0.87067   0.90145   0.91908   0.95623
 Alpha virt. eigenvalues --    0.97338   0.98064   0.99504   1.00240   1.01589
 Alpha virt. eigenvalues --    1.05853   1.07770   1.11013   1.12104   1.13787
 Alpha virt. eigenvalues --    1.14828   1.17635   1.18512   1.21235   1.24309
 Alpha virt. eigenvalues --    1.28807   1.29607   1.30135   1.35970   1.37321
 Alpha virt. eigenvalues --    1.38572   1.42421   1.43993   1.46948   1.47876
 Alpha virt. eigenvalues --    1.50851   1.52508   1.53083   1.54685   1.59829
 Alpha virt. eigenvalues --    1.68322   1.78223   1.81913   1.85079   1.86722
 Alpha virt. eigenvalues --    1.91828   1.95245   2.00068   2.00844   2.04642
 Alpha virt. eigenvalues --    2.07339   2.11278   2.13514   2.17120   2.18631
 Alpha virt. eigenvalues --    2.20521   2.24383   2.30414   2.32106   2.37693
 Alpha virt. eigenvalues --    2.39257   2.39505   2.56958   2.57849   2.62845
 Alpha virt. eigenvalues --    2.64310   2.66546   2.76708   2.76795   2.77696
 Alpha virt. eigenvalues --    2.87707   2.94105   3.07969   3.17411   3.40123
 Alpha virt. eigenvalues --    4.18480   4.24369   4.26496   4.27717   4.35246
 Alpha virt. eigenvalues --    4.40427   4.43291   4.51138   4.72392
          Condensed to atoms (all electrons):
               1          2          3          4          5          6
     1  C    9.874909  -0.897302   0.074630   0.683397  -0.814131  -2.678473
     2  C   -0.897302   6.164957   0.522211  -0.315800  -0.199099   0.521146
     3  C    0.074630   0.522211   5.117403   0.597170  -0.110596  -0.224385
     4  C    0.683397  -0.315800   0.597170   5.895039  -0.238482  -0.659679
     5  C   -0.814131  -0.199099  -0.110596  -0.238482   7.960336   0.325371
     6  C   -2.678473   0.521146  -0.224385  -0.659679   0.325371   8.362587
     7  H    0.177517   0.097140   0.006016  -0.007127   0.017771   0.009962
     8  H    0.009010   0.297145   0.003244   0.001838   0.005222  -0.005105
     9  H    0.010434  -0.004794   0.296881  -0.008857   0.005439   0.008937
    10  H   -0.006357   0.002258  -0.006681   0.307946   0.015528  -0.001051
    11  H    0.015050  -0.010066   0.005948  -0.012690   0.036945   0.292477
    12  C    0.481006   0.355809  -0.052766   0.052716  -1.469554  -0.207687
    13  O   -0.050089   0.016954  -0.003457   0.070306  -0.302148  -0.025680
    14  Cl  -0.149521   0.013674  -0.011572   0.006174  -0.023557   0.032036
               7          8          9         10         11         12
     1  C    0.177517   0.009010   0.010434  -0.006357   0.015050   0.481006
     2  C    0.097140   0.297145  -0.004794   0.002258  -0.010066   0.355809
     3  C    0.006016   0.003244   0.296881  -0.006681   0.005948  -0.052766
     4  C   -0.007127   0.001838  -0.008857   0.307946  -0.012690   0.052716
     5  C    0.017771   0.005222   0.005439   0.015528   0.036945  -1.469554
     6  C    0.009962  -0.005105   0.008937  -0.001051   0.292477  -0.207687
     7  H    0.452760  -0.003512  -0.000117   0.000011  -0.000088  -0.001770
     8  H   -0.003512   0.449850  -0.003285  -0.000114   0.000011   0.000353
     9  H   -0.000117  -0.003285   0.451769  -0.003251  -0.000110   0.001455
    10  H    0.000011  -0.000114  -0.003251   0.448370  -0.003350  -0.000486
    11  H   -0.000088   0.000011  -0.000110  -0.003350   0.436056  -0.029588
    12  C   -0.001770   0.000353   0.001455  -0.000486  -0.029588   6.472559
    13  O   -0.000028   0.000025  -0.000001   0.000086   0.004587   0.473383
    14  Cl   0.000892   0.000223   0.000008   0.000033   0.000478   0.147232
              13         14
     1  C   -0.050089  -0.149521
     2  C    0.016954   0.013674
     3  C   -0.003457  -0.011572
     4  C    0.070306   0.006174
     5  C   -0.302148  -0.023557
     6  C   -0.025680   0.032036
     7  H   -0.000028   0.000892
     8  H    0.000025   0.000223
     9  H   -0.000001   0.000008
    10  H    0.000086   0.000033
    11  H    0.004587   0.000478
    12  C    0.473383   0.147232
    13  O    8.217654  -0.047182
    14  Cl  -0.047182  16.866762
 Mulliken charges:
               1
     1  C   -0.730080
     2  C   -0.564233
     3  C   -0.214044
     4  C   -0.371949
     5  C    0.790955
     6  C    0.249545
     7  H    0.250573
     8  H    0.245095
     9  H    0.245493
    10  H    0.247058
    11  H    0.264340
    12  C   -0.222662
    13  O   -0.354410
    14  Cl   0.164320
 Sum of Mulliken charges =   0.00000
 Mulliken charges with hydrogens summed into heavy atoms:
               1
     1  C   -0.479506
     2  C   -0.319138
     3  C    0.031449
     4  C   -0.124891
     5  C    0.790955
     6  C    0.513885
    12  C   -0.222662
    13  O   -0.354410
    14  Cl   0.164320
 Electronic spatial extent (au):  <R**2>=           1479.2356
 Charge=              0.0000 electrons
 Dipole moment (field-independent basis, Debye):
    X=              3.9293    Y=             -2.1672    Z=             -0.0003  Tot=              4.4873
 Quadrupole moment (field-independent basis, Debye-Ang):
   XX=            -54.8590   YY=            -56.5606   ZZ=            -61.8096
   XY=              4.4419   XZ=              0.0001   YZ=             -0.0024
 Traceless Quadrupole moment (field-independent basis, Debye-Ang):
   XX=              2.8841   YY=              1.1825   ZZ=             -4.0665
   XY=              4.4419   XZ=              0.0001   YZ=             -0.0024
 Octapole moment (field-independent basis, Debye-Ang**2):
  XXX=             26.7958  YYY=            -10.6012  ZZZ=              0.0004  XYY=             12.4643
  XXY=             -9.8548  XXZ=             -0.0038  XZZ=            -12.8088  YZZ=              1.8216
  YYZ=             -0.0018  XYZ=             -0.0006
 Hexadecapole moment (field-independent basis, Debye-Ang**3):
 XXXX=          -1311.9985 YYYY=           -446.0908 ZZZZ=            -71.0127 XXXY=             24.3954
 XXXZ=             -0.0032 YYYX=             20.9331 YYYZ=             -0.0099 ZZZX=              0.0006
 ZZZY=              0.0034 XXYY=           -299.9944 XXZZ=           -267.1385 YYZZ=            -96.8685
 XXYZ=             -0.0059 YYXZ=              0.0034 ZZXY=             -0.0319
 N-N= 4.594321177876D+02 E-N=-2.813511065532D+03  KE= 8.006471687680D+02
 No NMR shielding tensors so no spin-rotation constants.
 Leave Link  601 at Wed May  2 18:54:22 2018, MaxMem=   268435456 cpu:         1.4
 (Enter /ihome/crc/build/g09/g09-D.01/TAR/g09/l701.exe)
 Compute integral first derivatives.
 ... and contract with generalized density number  0.
 D1PCM: PCM CHGder 1st derivatives, ID1Alg=3 FixD1E=F DoIter=F DoCFld=F I1PDM=0.
 GePol: Maximum number of non-zero 1st derivatives   =     354
 Leave Link  701 at Wed May  2 18:54:23 2018, MaxMem=   268435456 cpu:         3.1
 (Enter /ihome/crc/build/g09/g09-D.01/TAR/g09/l702.exe)
 L702 exits ... SP integral derivatives will be done elsewhere.
 Leave Link  702 at Wed May  2 18:54:23 2018, MaxMem=   268435456 cpu:         0.1
 (Enter /ihome/crc/build/g09/g09-D.01/TAR/g09/l703.exe)
 Compute integral first derivatives, UseDBF=F ICtDFT=           0.
 Integral derivatives from FoFJK, PRISM(SPDF).
 Calling FoFJK, ICntrl=      2127 FMM=F ISym2X=0 I1Cent= 0 IOpClX= 0 NMat=1 NMatS=1 NMatT=0.
 FoFJK:  IHMeth= 1 ICntrl=    2127 DoSepK=F KAlg= 0 I1Cent=   0 FoldK=F
 IRaf=         0 NMat=   1 IRICut=       1 DoRegI=T DoRafI=F ISym2E= 0.
 FoFCou: FMM=F IPFlag=           0 FMFlag=      100000 FMFlg1=         800
         NFxFlg=           0 DoJE=F BraDBF=F KetDBF=F FulRan=T
         wScrn=  0.000000 ICntrl=    2127 IOpCl=  0 I1Cent=           0 NGrid=           0
         NMat0=    1 NMatS0=      1 NMatT0=    0 NMatD0=    1 NMtDS0=    0 NMtDT0=    0
 Symmetry not used in FoFCou.
 Leave Link  703 at Wed May  2 18:54:27 2018, MaxMem=   268435456 cpu:        14.2
 (Enter /ihome/crc/build/g09/g09-D.01/TAR/g09/l716.exe)
 Dipole        = 1.54588909D+00-8.52626948D-01-1.33943545D-04
 ***** Axes restored to original set *****
 -------------------------------------------------------------------
 Center     Atomic                   Forces (Hartrees/Bohr)
 Number     Number              X              Y              Z
 -------------------------------------------------------------------
      1        6          -0.005230509   -0.001829005    0.000089063
      2        6           0.002062927    0.001641092   -0.000083378
      3        6          -0.002274897    0.000944716   -0.000053311
      4        6           0.005103262    0.003575655   -0.000182695
      5        6          -0.010708556    0.015046862   -0.000816273
      6        6           0.002485586   -0.005262702    0.000282036
      7        1           0.002993249   -0.000210594    0.000013602
      8        1           0.001745773    0.000275050   -0.000012241
      9        1           0.000472331    0.000599985   -0.000031369
     10        1           0.000923885    0.001258832   -0.000065852
     11        1          -0.001265606    0.003500749   -0.000187648
     12        6           0.032721409   -0.063654071    0.003441754
     13        8          -0.030392238    0.043995856   -0.002391438
     14       17           0.001363385    0.000117576   -0.000002251
 -------------------------------------------------------------------
 Cartesian Forces:  Max     0.063654071 RMS     0.014216556
 Leave Link  716 at Wed May  2 18:54:27 2018, MaxMem=   268435456 cpu:         0.1
 (Enter /ihome/crc/build/g09/g09-D.01/TAR/g09/l103.exe)

 GradGradGradGradGradGradGradGradGradGradGradGradGradGradGradGradGradGrad
 Berny optimization.
 FormGI is forming the generalized inverse of G from B-inverse, IUseBI=4.
 Internal  Forces:  Max     0.048731121 RMS     0.008245848
 Search for a local minimum.
 Step number   1 out of a maximum of   73
 All quantities printed in internal units (Hartrees-Bohrs-Radians)
 RMS Force = .82458D-02 SwitMx=.10000D-02 MixMth= 1
 Mixed Optimization -- RFO/linear search
 Second derivative matrix not updated -- first step.
 ITU=  0
     Eigenvalues ---    0.00763   0.00763   0.01652   0.02058   0.02084
     Eigenvalues ---    0.02089   0.02119   0.02140   0.02157   0.02164
     Eigenvalues ---    0.02176   0.16000   0.16000   0.16000   0.16000
     Eigenvalues ---    0.16000   0.22000   0.22000   0.23476   0.25000
     Eigenvalues ---    0.25000   0.25000   0.30279   0.32354   0.34927
     Eigenvalues ---    0.35066   0.35095   0.35103   0.35215   0.41640
     Eigenvalues ---    0.41832   0.45314   0.46048   0.46076   0.46630
     Eigenvalues ---    0.90874
 RFO step:  Lambda=-9.78620014D-03 EMin= 7.62945098D-03
 Linear search not attempted -- first point.
 Iteration  1 RMS(Cart)=  0.03571679 RMS(Int)=  0.00194647
 Iteration  2 RMS(Cart)=  0.00198510 RMS(Int)=  0.00000778
 Iteration  3 RMS(Cart)=  0.00000384 RMS(Int)=  0.00000730
 Iteration  4 RMS(Cart)=  0.00000000 RMS(Int)=  0.00000730
 ITry= 1 IFail=0 DXMaxC= 1.64D-01 DCOld= 1.00D+10 DXMaxT= 3.00D-01 DXLimC= 3.00D+00 Rises=F
 Variable       Old X    -DE/DX   Delta X   Delta X   Delta X     New X
                                 (Linear)    (Quad)   (Total)
    R1        2.64217  -0.00531   0.00000  -0.01133  -0.01133   2.63084
    R2        2.64950  -0.00257   0.00000  -0.00592  -0.00591   2.64359
    R3        2.05327  -0.00051   0.00000  -0.00140  -0.00140   2.05187
    R4        2.63398   0.00000   0.00000   0.00035   0.00034   2.63431
    R5        2.05568  -0.00145   0.00000  -0.00401  -0.00401   2.05167
    R6        2.63237   0.00337   0.00000   0.00741   0.00740   2.63977
    R7        2.05521  -0.00073   0.00000  -0.00201  -0.00201   2.05320
    R8        2.63900  -0.00597   0.00000  -0.01264  -0.01264   2.62636
    R9        2.05509  -0.00120   0.00000  -0.00332  -0.00332   2.05177
   R10        2.65323  -0.00430   0.00000  -0.00973  -0.00971   2.64351
   R11        2.83502  -0.00716   0.00000  -0.02149  -0.02149   2.81352
   R12        2.05793  -0.00274   0.00000  -0.00763  -0.00763   2.05030
   R13        2.32533  -0.04873   0.00000  -0.05305  -0.05305   2.27227
   R14        3.31110   0.00010   0.00000   0.00031   0.00031   3.31141
    A1        2.09859  -0.00089   0.00000  -0.00428  -0.00427   2.09432
    A2        2.05995   0.00346   0.00000   0.01988   0.01987   2.07982
    A3        2.12464  -0.00257   0.00000  -0.01560  -0.01561   2.10904
    A4        2.09824  -0.00148   0.00000  -0.00535  -0.00536   2.09288
    A5        2.09347  -0.00028   0.00000  -0.00334  -0.00333   2.09013
    A6        2.09148   0.00176   0.00000   0.00869   0.00869   2.10017
    A7        2.09437  -0.00005   0.00000   0.00170   0.00167   2.09604
    A8        2.09482  -0.00019   0.00000  -0.00210  -0.00209   2.09273
    A9        2.09399   0.00024   0.00000   0.00041   0.00042   2.09441
   A10        2.09394   0.00069   0.00000   0.00417   0.00416   2.09810
   A11        2.09580   0.00071   0.00000   0.00414   0.00415   2.09995
   A12        2.09344  -0.00140   0.00000  -0.00832  -0.00831   2.08513
   A13        2.07743   0.00485   0.00000   0.01767   0.01769   2.09512
   A14        2.13085   0.00015   0.00000   0.00109   0.00107   2.13193
   A15        2.07490  -0.00500   0.00000  -0.01875  -0.01877   2.05613
   A16        2.10380  -0.00312   0.00000  -0.01391  -0.01390   2.08990
   A17        2.07703   0.00418   0.00000   0.02239   0.02238   2.09941
   A18        2.10235  -0.00106   0.00000  -0.00848  -0.00848   2.09387
   A19        2.04794   0.03298   0.00000   0.12693   0.12693   2.17488
   A20        2.09280  -0.01428   0.00000  -0.05497  -0.05497   2.03784
   A21        2.14244  -0.01870   0.00000  -0.07196  -0.07196   2.07047
    D1        0.00000   0.00000   0.00000  -0.00001  -0.00001  -0.00002
    D2        3.14159   0.00000   0.00000  -0.00001  -0.00001   3.14158
    D3       -3.14158   0.00000   0.00000  -0.00002  -0.00002   3.14159
    D4        0.00001   0.00000   0.00000  -0.00001  -0.00001   0.00000
    D5       -0.00001   0.00000   0.00000   0.00003   0.00003   0.00002
    D6        3.14159   0.00000   0.00000   0.00003   0.00003  -3.14157
    D7        3.14157   0.00000   0.00000   0.00003   0.00003  -3.14159
    D8       -0.00002   0.00000   0.00000   0.00003   0.00003   0.00001
    D9        0.00001   0.00000   0.00000   0.00000   0.00000   0.00000
   D10       -3.14159   0.00000   0.00000   0.00000   0.00000  -3.14159
   D11       -3.14158   0.00000   0.00000  -0.00001  -0.00001   3.14159
   D12        0.00001   0.00000   0.00000   0.00000   0.00000   0.00000
   D13        0.00000   0.00000   0.00000   0.00001   0.00001   0.00000
   D14        3.14159   0.00000   0.00000   0.00000   0.00000  -3.14159
   D15       -3.14159   0.00000   0.00000   0.00000   0.00000  -3.14159
   D16        0.00000   0.00000   0.00000   0.00000   0.00000   0.00000
   D17       -0.00001   0.00000   0.00000   0.00001   0.00001   0.00000
   D18        3.14159   0.00000   0.00000  -0.00001  -0.00001   3.14158
   D19        3.14158   0.00000   0.00000   0.00001   0.00001  -3.14159
   D20        0.00000   0.00000   0.00000  -0.00001  -0.00001  -0.00001
   D21        0.00001   0.00000   0.00000  -0.00002  -0.00002  -0.00001
   D22       -3.14159   0.00000   0.00000  -0.00001  -0.00001   3.14159
   D23       -3.14158   0.00000   0.00000  -0.00003  -0.00003   3.14157
   D24        0.00000   0.00000   0.00000  -0.00001  -0.00001  -0.00001
   D25        3.14128   0.00000   0.00000   0.00004   0.00004   3.14132
   D26       -0.00033   0.00000   0.00000   0.00015   0.00015  -0.00017
   D27       -0.00030   0.00000   0.00000   0.00004   0.00004  -0.00026
   D28        3.14127   0.00000   0.00000   0.00016   0.00016   3.14143
         Item               Value     Threshold  Converged?
 Maximum Force            0.048731     0.000450     NO 
 RMS     Force            0.008246     0.000300     NO 
 Maximum Displacement     0.164268     0.001800     NO 
 RMS     Displacement     0.035459     0.001200     NO 
 Predicted change in Energy=-5.042236D-03
 Lowest energy point so far.  Saving SCF results.
 GradGradGradGradGradGradGradGradGradGradGradGradGradGradGradGradGradGrad

 Leave Link  103 at Wed May  2 18:54:32 2018, MaxMem=   268435456 cpu:        13.5
 (Enter /ihome/crc/build/g09/g09-D.01/TAR/g09/l202.exe)
                          Input orientation:                          
 ---------------------------------------------------------------------
 Center     Atomic      Atomic             Coordinates (Angstroms)
 Number     Number       Type             X           Y           Z
 ---------------------------------------------------------------------
      1          6           0       -2.382121    0.760698   -0.079914
      2          6           0       -3.549077    0.002491   -0.041148
      3          6           0       -3.472869   -1.387480    0.032747
      4          6           0       -2.227781   -2.019830    0.067914
      5          6           0       -1.135191    0.127509   -0.044686
      6          6           0       -1.059913   -1.267381    0.029464
      7          1           0       -2.455632    1.842483   -0.137446
      8          1           0       -4.514739    0.497949   -0.068690
      9          1           0       -4.383692   -1.979076    0.062988
     10          1           0       -2.164184   -3.102186    0.125459
     11          1           0       -0.092208   -1.757253    0.056719
     12          6           0        0.142442    0.890940   -0.083553
     13          8           0        1.236641    0.393157   -0.055442
     14         17           0        0.016149    2.636227   -0.176630
 ---------------------------------------------------------------------
                    Distance matrix (angstroms):
                    1          2          3          4          5
     1  C    0.000000
     2  C    1.392180   0.000000
     3  C    2.411865   1.394019   0.000000
     4  C    2.788729   2.418161   1.396907   0.000000
     5  C    1.398930   2.417124   2.786741   2.411949   0.000000
     6  C    2.423490   2.795264   2.415946   1.389810   1.398887
     7  H    1.085805   2.142537   3.390634   3.874475   2.166404
     8  H    2.148772   1.085697   2.156530   3.404122   3.399874
     9  H    3.396038   2.152681   1.086508   2.156302   3.873249
    10  H    3.874474   3.403632   2.159044   1.085749   3.393922
    11  H    3.406237   3.880235   3.400908   2.151683   2.156485
    12  C    2.527923   3.797163   4.274950   3.756791   1.488853
    13  O    3.637462   4.801659   5.035666   4.223736   2.386687
    14  Cl   3.046090   4.434609   5.329850   5.174349   2.763450
                    6          7          8          9         10
     6  C    0.000000
     7  H    3.412792   0.000000
     8  H    3.880960   2.460167   0.000000
     9  H    3.399286   4.285079   2.483982   0.000000
    10  H    2.143627   4.960223   4.303925   2.488272   0.000000
    11  H    1.084974   4.310635   4.965928   4.297218   2.471164
    12  C    2.473213   2.767368   4.673756   5.361376   4.616196
    13  O    2.835270   3.967386   5.752350   6.101612   4.880139
    14  Cl   4.054447   2.596395   5.011270   6.380991   6.146096
                   11         12         13         14
    11  H    0.000000
    12  C    2.662267   0.000000
    13  O    2.530353   1.202436   0.000000
    14  Cl   4.401007   1.752324   2.556492   0.000000
 Stoichiometry    C7H5ClO
 Framework group  C1[X(C7H5ClO)]
 Deg. of freedom    36
 Full point group                 C1      NOp   1
 RotChk:  IX=0 Diff= 7.93D-03
 Largest Abelian subgroup         C1      NOp   1
 Largest concise Abelian subgroup C1      NOp   1
                         Standard orientation:                         
 ---------------------------------------------------------------------
 Center     Atomic      Atomic             Coordinates (Angstroms)
 Number     Number       Type             X           Y           Z
 ---------------------------------------------------------------------
      1          6           0        0.569694   -1.122469    0.000092
      2          6           0        1.933566   -1.401789    0.000099
      3          6           0        2.857041   -0.357527   -0.000001
      4          6           0        2.415686    0.967824   -0.000105
      5          6           0        0.127618    0.204773    0.000001
      6          6           0        1.055215    1.251888   -0.000105
      7          1           0       -0.138920   -1.945171    0.000168
      8          1           0        2.272339   -2.433279    0.000180
      9          1           0        3.921423   -0.575676   -0.000001
     10          1           0        3.131757    1.783968   -0.000186
     11          1           0        0.711059    2.280833   -0.000178
     12          6           0       -1.318698    0.558117    0.000023
     13          8           0       -1.747308    1.681569    0.000216
     14         17           0       -2.456466   -0.774596   -0.000102
 ---------------------------------------------------------------------
 Rotational constants (GHZ):      3.1728304      0.9340326      0.7216036
 Leave Link  202 at Wed May  2 18:54:32 2018, MaxMem=   268435456 cpu:         0.2
 (Enter /ihome/crc/build/g09/g09-D.01/TAR/g09/l301.exe)
 Standard basis: 6-31+G(d) (6D, 7F)
 Ernie: Thresh=  0.10000D-02 Tol=  0.10000D-05 Strict=F.
 There are   185 symmetry adapted cartesian basis functions of A   symmetry.
 There are   185 symmetry adapted basis functions of A   symmetry.
   185 basis functions,   332 primitive gaussians,   185 cartesian basis functions
    36 alpha electrons       36 beta electrons
       nuclear repulsion energy       462.4708451986 Hartrees.
 IExCor= 4336 DFT=T Ex+Corr=M062X ExCW=0 ScaHFX=  0.540000
 ScaDFX=  1.000000  1.000000  1.000000  1.000000 ScalE2=  1.000000  1.000000
 IRadAn=      0 IRanWt=     -1 IRanGd=            0 ICorTp=0 IEmpDi=  4
 NAtoms=   14 NActive=   14 NUniq=   14 SFac= 1.00D+00 NAtFMM=   60 NAOKFM=F Big=F
 Integral buffers will be    131072 words long.
 Raffenetti 2 integral format.
 Two-electron integral symmetry is turned on.
 ------------------------------------------------------------------------------
 Polarizable Continuum Model (PCM)
 =================================
 Model                : PCM (using non-symmetric T matrix).
 Atomic radii         : SMD-Coulomb.
 Polarization charges : Total charges.
 Charge compensation  : None.
 Solution method      : On-the-fly selection.
 Cavity type          : VdW (van der Waals Surface) (Alpha=1.000).
 Cavity algorithm     : GePol (No added spheres)
                        Default sphere list used, NSphG=   14.
                        Lebedev-Laikov grids with approx.  5.0 points / Ang**2.
                        Smoothing algorithm: Karplus/York (Gamma=1.0000).
                        Polarization charges: spherical gaussians, with
                                              point-specific exponents (IZeta= 3).
                        Self-potential: point-specific (ISelfS= 7).
                        Self-field    : sphere-specific E.n sum rule (ISelfD= 2).
 1st derivatives      : Analytical E(r).r(x)/FMM algorithm (CHGder, D1EAlg=3).
                        Cavity 1st derivative terms included.
 Solvent              : Chloroform, Eps=   4.711300 Eps(inf)=   2.090627
 ------------------------------------------------------------------------------
 Spheres list:
 ISph  on   Nord     Re0    Alpha      Xe            Ye            Ze
    1   C      1    1.8500  1.000      0.569694     -1.122469      0.000092
    2   C      2    1.8500  1.000      1.933566     -1.401789      0.000099
    3   C      3    1.8500  1.000      2.857041     -0.357527     -0.000001
    4   C      4    1.8500  1.000      2.415686      0.967824     -0.000105
    5   C      5    1.8500  1.000      0.127618      0.204773      0.000001
    6   C      6    1.8500  1.000      1.055215      1.251888     -0.000105
    7   H      7    1.2000  1.000     -0.138920     -1.945171      0.000168
    8   H      8    1.2000  1.000      2.272339     -2.433279      0.000180
    9   H      9    1.2000  1.000      3.921423     -0.575676     -0.000001
   10   H     10    1.2000  1.000      3.131757      1.783968     -0.000186
   11   H     11    1.2000  1.000      0.711059      2.280833     -0.000178
   12   C     12    1.8500  1.000     -1.318698      0.558117      0.000023
   13   O     13    2.0240  1.000     -1.747308      1.681569      0.000216
   14  Cl     14    2.3800  1.000     -2.456466     -0.774596     -0.000102
 ------------------------------------------------------------------------------
 GePol: Number of generator spheres                  =      14
 GePol: Total number of spheres                      =      14
 GePol: Number of exposed spheres                    =      14 (100.00%)
 GePol: Number of points                             =    1390
 GePol: Average weight of points                     =       0.12
 GePol: Minimum weight of points                     =   0.33D-09
 GePol: Maximum weight of points                     =    0.18790
 GePol: Number of points with low weight             =      36
 GePol: Fraction of low-weight points (<1% of avg)   =       2.59%
 GePol: Cavity surface area                          =    172.373 Ang**2
 GePol: Cavity volume                                =    161.247 Ang**3
 ------------------------------------------------------------------------------
 Atomic radii for non-electrostatic terms: SMD-CDS.
 ------------------------------------------------------------------------------
 PCM non-electrostatic energy =        -0.0053161699 Hartrees.
 Nuclear repulsion after PCM non-electrostatic terms =      462.4655290287 Hartrees.
 Leave Link  301 at Wed May  2 18:54:32 2018, MaxMem=   268435456 cpu:         0.2
 (Enter /ihome/crc/build/g09/g09-D.01/TAR/g09/l302.exe)
 NPDir=0 NMtPBC=     1 NCelOv=     1 NCel=       1 NClECP=     1 NCelD=      1
         NCelK=      1 NCelE2=     1 NClLst=     1 CellRange=     0.0.
 One-electron integrals computed using PRISM.
 NBasis=   185 RedAO= T EigKep=  3.85D-06  NBF=   185
 NBsUse=   185 1.00D-06 EigRej= -1.00D+00 NBFU=   185
 Precomputing XC quadrature grid using
 IXCGrd= 4 IRadAn=           0 IRanWt=          -1 IRanGd=           0 AccXCQ= 0.00D+00.
 Generated NRdTot=       0 NPtTot=           0 NUsed=           0 NTot=          32
 NSgBfM=   185   185   185   185   185 MxSgAt=    14 MxSgA2=    14.
 Leave Link  302 at Wed May  2 18:54:32 2018, MaxMem=   268435456 cpu:         1.1
 (Enter /ihome/crc/build/g09/g09-D.01/TAR/g09/l303.exe)
 DipDrv:  MaxL=1.
 Leave Link  303 at Wed May  2 18:54:32 2018, MaxMem=   268435456 cpu:         0.2
 (Enter /ihome/crc/build/g09/g09-D.01/TAR/g09/l401.exe)
 Initial guess from the checkpoint file:  "1.chk"
 B after Tr=     0.000000    0.000000    0.000000
         Rot=    0.999980    0.000000    0.000001   -0.006276 Ang=  -0.72 deg.
 Guess basis will be translated and rotated to current coordinates.
 JPrj=2 DoOrth=T DoCkMO=T.
 Generating alternative initial guess.
 ExpMin= 4.38D-02 ExpMax= 2.52D+04 ExpMxC= 3.78D+03 IAcc=2 IRadAn=         4 AccDes= 0.00D+00
 Harris functional with IExCor= 1009 and IRadAn=       4 diagonalized for initial guess.
 HarFok:  IExCor= 1009 AccDes= 0.00D+00 IRadAn=         4 IDoV= 1 UseB2=F ITyADJ=14
 ICtDFT=  3500011 ScaDFX=  1.000000  1.000000  1.000000  1.000000
 FoFCou: FMM=F IPFlag=           0 FMFlag=      100000 FMFlg1=           0
         NFxFlg=           0 DoJE=T BraDBF=F KetDBF=T FulRan=T
         wScrn=  0.000000 ICntrl=     500 IOpCl=  0 I1Cent=   200000004 NGrid=           0
         NMat0=    1 NMatS0=      1 NMatT0=    0 NMatD0=    1 NMtDS0=    0 NMtDT0=    0
 Petite list used in FoFCou.
 Harris En= -804.626992895223    
 Leave Link  401 at Wed May  2 18:54:34 2018, MaxMem=   268435456 cpu:         5.7
 (Enter /ihome/crc/build/g09/g09-D.01/TAR/g09/l502.exe)
 Closed shell SCF:
 Using DIIS extrapolation, IDIIS=  1040.
 Integral symmetry usage will be decided dynamically.
 Keep R1 ints in memory in canonical form, NReq=153330508.
 IVT=      123714 IEndB=      123714 NGot=   268435456 MDV=   120297128
 LenX=   120297128 LenY=   120262462
 Requested convergence on RMS density matrix=1.00D-08 within 128 cycles.
 Requested convergence on MAX density matrix=1.00D-06.
 Requested convergence on             energy=1.00D-06.
 No special actions if energy rises.
 FoFCou: FMM=F IPFlag=           0 FMFlag=           0 FMFlg1=           0
         NFxFlg=           0 DoJE=F BraDBF=F KetDBF=F FulRan=T
         wScrn=  0.000000 ICntrl=     600 IOpCl=  0 I1Cent=           0 NGrid=           0
         NMat0=    1 NMatS0=  17205 NMatT0=    0 NMatD0=    1 NMtDS0=    0 NMtDT0=    0
 Symmetry not used in FoFCou.

 Cycle   1  Pass 1  IDiag  1:
 Inv3:  Mode=1 IEnd=     5796300.
 Iteration    1 A*A^-1 deviation from unit magnitude is 6.44D-15 for    564.
 Iteration    1 A*A^-1 deviation from orthogonality  is 4.11D-15 for   1320    107.
 Iteration    1 A^-1*A deviation from unit magnitude is 5.44D-15 for    104.
 Iteration    1 A^-1*A deviation from orthogonality  is 1.76D-15 for    289    270.
 E= -805.019032029368    
 DIIS: error= 4.15D-03 at cycle   1 NSaved=   1.
 NSaved= 1 IEnMin= 1 EnMin= -805.019032029368     IErMin= 1 ErrMin= 4.15D-03
 ErrMax= 4.15D-03  0.00D+00 EMaxC= 1.00D-01 BMatC= 5.82D-03 BMatP= 5.82D-03
 IDIUse=3 WtCom= 9.58D-01 WtEn= 4.15D-02
 Coeff-Com:  0.100D+01
 Coeff-En:   0.100D+01
 Coeff:      0.100D+01
 Gap=     0.555 Goal=   None    Shift=    0.000
 GapD=    0.555 DampG=2.000 DampE=1.000 DampFc=2.0000 IDamp=-1.
 RMSDP=3.66D-03 MaxDP=1.24D-01              OVMax= 2.22D-02

 Cycle   2  Pass 1  IDiag  1:
 E= -805.026613527513     Delta-E=       -0.007581498145 Rises=F Damp=F
 DIIS: error= 1.07D-03 at cycle   2 NSaved=   2.
 NSaved= 2 IEnMin= 2 EnMin= -805.026613527513     IErMin= 2 ErrMin= 1.07D-03
 ErrMax= 1.07D-03  0.00D+00 EMaxC= 1.00D-01 BMatC= 2.29D-04 BMatP= 5.82D-03
 IDIUse=3 WtCom= 9.89D-01 WtEn= 1.07D-02
 Coeff-Com: -0.777D-01 0.108D+01
 Coeff-En:   0.000D+00 0.100D+01
 Coeff:     -0.768D-01 0.108D+01
 Gap=     0.279 Goal=   None    Shift=    0.000
 RMSDP=7.59D-04 MaxDP=2.57D-02 DE=-7.58D-03 OVMax= 6.24D-03

 Cycle   3  Pass 1  IDiag  1:
 E= -805.026826976795     Delta-E=       -0.000213449282 Rises=F Damp=F
 DIIS: error= 9.21D-04 at cycle   3 NSaved=   3.
 NSaved= 3 IEnMin= 3 EnMin= -805.026826976795     IErMin= 3 ErrMin= 9.21D-04
 ErrMax= 9.21D-04  0.00D+00 EMaxC= 1.00D-01 BMatC= 1.24D-04 BMatP= 2.29D-04
 IDIUse=3 WtCom= 9.91D-01 WtEn= 9.21D-03
 Coeff-Com: -0.676D-01 0.476D+00 0.591D+00
 Coeff-En:   0.000D+00 0.000D+00 0.100D+01
 Coeff:     -0.670D-01 0.472D+00 0.595D+00
 Gap=     0.277 Goal=   None    Shift=    0.000
 RMSDP=4.55D-04 MaxDP=2.05D-02 DE=-2.13D-04 OVMax= 4.53D-03

 Cycle   4  Pass 1  IDiag  1:
 E= -805.026952595473     Delta-E=       -0.000125618678 Rises=F Damp=F
 DIIS: error= 2.48D-04 at cycle   4 NSaved=   4.
 NSaved= 4 IEnMin= 4 EnMin= -805.026952595473     IErMin= 4 ErrMin= 2.48D-04
 ErrMax= 2.48D-04  0.00D+00 EMaxC= 1.00D-01 BMatC= 8.20D-06 BMatP= 1.24D-04
 IDIUse=3 WtCom= 9.98D-01 WtEn= 2.48D-03
 Coeff-Com: -0.138D-01 0.481D-01 0.220D+00 0.745D+00
 Coeff-En:   0.000D+00 0.000D+00 0.000D+00 0.100D+01
 Coeff:     -0.137D-01 0.480D-01 0.220D+00 0.746D+00
 Gap=     0.277 Goal=   None    Shift=    0.000
 RMSDP=8.43D-05 MaxDP=5.65D-03 DE=-1.26D-04 OVMax= 1.17D-03

 Cycle   5  Pass 1  IDiag  1:
 E= -805.026961142071     Delta-E=       -0.000008546598 Rises=F Damp=F
 DIIS: error= 7.25D-05 at cycle   5 NSaved=   5.
 NSaved= 5 IEnMin= 5 EnMin= -805.026961142071     IErMin= 5 ErrMin= 7.25D-05
 ErrMax= 7.25D-05  0.00D+00 EMaxC= 1.00D-01 BMatC= 9.49D-07 BMatP= 8.20D-06
 IDIUse=1 WtCom= 1.00D+00 WtEn= 0.00D+00
 Coeff-Com: -0.811D-03-0.167D-01 0.561D-01 0.342D+00 0.619D+00
 Coeff:     -0.811D-03-0.167D-01 0.561D-01 0.342D+00 0.619D+00
 Gap=     0.277 Goal=   None    Shift=    0.000
 RMSDP=1.75D-05 MaxDP=5.26D-04 DE=-8.55D-06 OVMax= 3.12D-04

 Cycle   6  Pass 1  IDiag  1:
 E= -805.026962004388     Delta-E=       -0.000000862317 Rises=F Damp=F
 DIIS: error= 2.20D-05 at cycle   6 NSaved=   6.
 NSaved= 6 IEnMin= 6 EnMin= -805.026962004388     IErMin= 6 ErrMin= 2.20D-05
 ErrMax= 2.20D-05  0.00D+00 EMaxC= 1.00D-01 BMatC= 8.15D-08 BMatP= 9.49D-07
 IDIUse=1 WtCom= 1.00D+00 WtEn= 0.00D+00
 Coeff-Com:  0.785D-03-0.118D-01 0.398D-02 0.824D-01 0.277D+00 0.648D+00
 Coeff:      0.785D-03-0.118D-01 0.398D-02 0.824D-01 0.277D+00 0.648D+00
 Gap=     0.277 Goal=   None    Shift=    0.000
 RMSDP=8.31D-06 MaxDP=3.59D-04 DE=-8.62D-07 OVMax= 1.18D-04

 Cycle   7  Pass 1  IDiag  1:
 E= -805.026962073507     Delta-E=       -0.000000069119 Rises=F Damp=F
 DIIS: error= 8.63D-06 at cycle   7 NSaved=   7.
 NSaved= 7 IEnMin= 7 EnMin= -805.026962073507     IErMin= 7 ErrMin= 8.63D-06
 ErrMax= 8.63D-06  0.00D+00 EMaxC= 1.00D-01 BMatC= 1.58D-08 BMatP= 8.15D-08
 IDIUse=1 WtCom= 1.00D+00 WtEn= 0.00D+00
 Coeff-Com:  0.554D-03-0.481D-02-0.507D-02 0.329D-02 0.752D-01 0.356D+00
 Coeff-Com:  0.575D+00
 Coeff:      0.554D-03-0.481D-02-0.507D-02 0.329D-02 0.752D-01 0.356D+00
 Coeff:      0.575D+00
 Gap=     0.277 Goal=   None    Shift=    0.000
 RMSDP=2.88D-06 MaxDP=8.58D-05 DE=-6.91D-08 OVMax= 3.36D-05

 Cycle   8  Pass 1  IDiag  1:
 E= -805.026962087205     Delta-E=       -0.000000013699 Rises=F Damp=F
 DIIS: error= 1.85D-06 at cycle   8 NSaved=   8.
 NSaved= 8 IEnMin= 8 EnMin= -805.026962087205     IErMin= 8 ErrMin= 1.85D-06
 ErrMax= 1.85D-06  0.00D+00 EMaxC= 1.00D-01 BMatC= 5.40D-10 BMatP= 1.58D-08
 IDIUse=1 WtCom= 1.00D+00 WtEn= 0.00D+00
 Coeff-Com:  0.443D-04 0.361D-03-0.184D-02-0.101D-01-0.172D-01 0.209D-01
 Coeff-Com:  0.113D+00 0.895D+00
 Coeff:      0.443D-04 0.361D-03-0.184D-02-0.101D-01-0.172D-01 0.209D-01
 Coeff:      0.113D+00 0.895D+00
 Gap=     0.277 Goal=   None    Shift=    0.000
 RMSDP=1.05D-06 MaxDP=2.54D-05 DE=-1.37D-08 OVMax= 1.93D-05

 Cycle   9  Pass 1  IDiag  1:
 E= -805.026962088424     Delta-E=       -0.000000001219 Rises=F Damp=F
 DIIS: error= 8.82D-07 at cycle   9 NSaved=   9.
 NSaved= 9 IEnMin= 9 EnMin= -805.026962088424     IErMin= 9 ErrMin= 8.82D-07
 ErrMax= 8.82D-07  0.00D+00 EMaxC= 1.00D-01 BMatC= 1.41D-10 BMatP= 5.40D-10
 IDIUse=1 WtCom= 1.00D+00 WtEn= 0.00D+00
 Coeff-Com: -0.559D-04 0.740D-03 0.556D-04-0.394D-02-0.151D-01-0.330D-01
 Coeff-Com: -0.489D-01 0.323D+00 0.777D+00
 Coeff:     -0.559D-04 0.740D-03 0.556D-04-0.394D-02-0.151D-01-0.330D-01
 Coeff:     -0.489D-01 0.323D+00 0.777D+00
 Gap=     0.277 Goal=   None    Shift=    0.000
 RMSDP=3.51D-07 MaxDP=9.08D-06 DE=-1.22D-09 OVMax= 7.05D-06

 Cycle  10  Pass 1  IDiag  1:
 E= -805.026962088633     Delta-E=       -0.000000000209 Rises=F Damp=F
 DIIS: error= 1.57D-07 at cycle  10 NSaved=  10.
 NSaved=10 IEnMin=10 EnMin= -805.026962088633     IErMin=10 ErrMin= 1.57D-07
 ErrMax= 1.57D-07  0.00D+00 EMaxC= 1.00D-01 BMatC= 1.24D-11 BMatP= 1.41D-10
 IDIUse=1 WtCom= 1.00D+00 WtEn= 0.00D+00
 Coeff-Com: -0.191D-04 0.157D-03 0.202D-03-0.117D-03-0.226D-02-0.875D-02
 Coeff-Com: -0.312D-01-0.135D-01 0.193D+00 0.862D+00
 Coeff:     -0.191D-04 0.157D-03 0.202D-03-0.117D-03-0.226D-02-0.875D-02
 Coeff:     -0.312D-01-0.135D-01 0.193D+00 0.862D+00
 Gap=     0.277 Goal=   None    Shift=    0.000
 RMSDP=1.55D-07 MaxDP=4.84D-06 DE=-2.09D-10 OVMax= 2.18D-06

 Cycle  11  Pass 1  IDiag  1:
 E= -805.026962088662     Delta-E=       -0.000000000029 Rises=F Damp=F
 DIIS: error= 7.92D-08 at cycle  11 NSaved=  11.
 NSaved=11 IEnMin=11 EnMin= -805.026962088662     IErMin=11 ErrMin= 7.92D-08
 ErrMax= 7.92D-08  0.00D+00 EMaxC= 1.00D-01 BMatC= 1.51D-12 BMatP= 1.24D-11
 IDIUse=1 WtCom= 1.00D+00 WtEn= 0.00D+00
 Coeff-Com:  0.926D-06-0.446D-04 0.562D-04 0.425D-03 0.116D-02 0.232D-02
 Coeff-Com: -0.546D-02-0.429D-01-0.330D-01 0.286D+00 0.791D+00
 Coeff:      0.926D-06-0.446D-04 0.562D-04 0.425D-03 0.116D-02 0.232D-02
 Coeff:     -0.546D-02-0.429D-01-0.330D-01 0.286D+00 0.791D+00
 Gap=     0.277 Goal=   None    Shift=    0.000
 RMSDP=6.68D-08 MaxDP=2.74D-06 DE=-2.89D-11 OVMax= 8.29D-07

 Cycle  12  Pass 1  IDiag  1:
 E= -805.026962088665     Delta-E=       -0.000000000003 Rises=F Damp=F
 DIIS: error= 1.72D-08 at cycle  12 NSaved=  12.
 NSaved=12 IEnMin=12 EnMin= -805.026962088665     IErMin=12 ErrMin= 1.72D-08
 ErrMax= 1.72D-08  0.00D+00 EMaxC= 1.00D-01 BMatC= 8.20D-14 BMatP= 1.51D-12
 IDIUse=1 WtCom= 1.00D+00 WtEn= 0.00D+00
 Coeff-Com:  0.142D-05-0.204D-04 0.135D-05 0.106D-03 0.434D-03 0.126D-02
 Coeff-Com:  0.478D-03-0.962D-02-0.205D-01 0.850D-02 0.200D+00 0.820D+00
 Coeff:      0.142D-05-0.204D-04 0.135D-05 0.106D-03 0.434D-03 0.126D-02
 Coeff:      0.478D-03-0.962D-02-0.205D-01 0.850D-02 0.200D+00 0.820D+00
 Gap=     0.277 Goal=   None    Shift=    0.000
 RMSDP=1.54D-08 MaxDP=5.82D-07 DE=-3.41D-12 OVMax= 2.09D-07

 Cycle  13  Pass 1  IDiag  1:
 E= -805.026962088673     Delta-E=       -0.000000000008 Rises=F Damp=F
 DIIS: error= 8.43D-09 at cycle  13 NSaved=  13.
 NSaved=13 IEnMin=13 EnMin= -805.026962088673     IErMin=13 ErrMin= 8.43D-09
 ErrMax= 8.43D-09  0.00D+00 EMaxC= 1.00D-01 BMatC= 1.04D-14 BMatP= 8.20D-14
 IDIUse=1 WtCom= 1.00D+00 WtEn= 0.00D+00
 Coeff-Com:  0.299D-06-0.727D-06-0.599D-05-0.181D-04 0.212D-06 0.139D-03
 Coeff-Com:  0.795D-03 0.193D-02-0.255D-02-0.336D-01-0.293D-01 0.245D+00
 Coeff-Com:  0.817D+00
 Coeff:      0.299D-06-0.727D-06-0.599D-05-0.181D-04 0.212D-06 0.139D-03
 Coeff:      0.795D-03 0.193D-02-0.255D-02-0.336D-01-0.293D-01 0.245D+00
 Coeff:      0.817D+00
 Gap=     0.277 Goal=   None    Shift=    0.000
 RMSDP=5.08D-09 MaxDP=1.73D-07 DE=-7.50D-12 OVMax= 9.95D-08

 Error on total polarization charges =  0.02341
 SCF Done:  E(RM062X) =  -805.026962089     A.U. after   13 cycles
            NFock= 13  Conv=0.51D-08     -V/T= 2.0052
 KE= 8.008575637197D+02 PE=-2.819761853098D+03 EE= 7.514117982611D+02
 SMD-CDS (non-electrostatic) energy       (kcal/mol) =      -3.34
 (included in total energy above)
 Leave Link  502 at Wed May  2 18:54:56 2018, MaxMem=   268435456 cpu:        74.5
 (Enter /ihome/crc/build/g09/g09-D.01/TAR/g09/l701.exe)
 Compute integral first derivatives.
 ... and contract with generalized density number  0.
 D1PCM: PCM CHGder 1st derivatives, ID1Alg=3 FixD1E=F DoIter=F DoCFld=F I1PDM=0.
 GePol: Maximum number of non-zero 1st derivatives   =     351
 Leave Link  701 at Wed May  2 18:54:57 2018, MaxMem=   268435456 cpu:         4.2
 (Enter /ihome/crc/build/g09/g09-D.01/TAR/g09/l702.exe)
 L702 exits ... SP integral derivatives will be done elsewhere.
 Leave Link  702 at Wed May  2 18:54:57 2018, MaxMem=   268435456 cpu:         0.0
 (Enter /ihome/crc/build/g09/g09-D.01/TAR/g09/l703.exe)
 Compute integral first derivatives, UseDBF=F ICtDFT=           0.
 Integral derivatives from FoFJK, PRISM(SPDF).
 Calling FoFJK, ICntrl=      2127 FMM=F ISym2X=0 I1Cent= 0 IOpClX= 0 NMat=1 NMatS=1 NMatT=0.
 FoFJK:  IHMeth= 1 ICntrl=    2127 DoSepK=F KAlg= 0 I1Cent=   0 FoldK=F
 IRaf=         0 NMat=   1 IRICut=       1 DoRegI=T DoRafI=F ISym2E= 0.
 FoFCou: FMM=F IPFlag=           0 FMFlag=      100000 FMFlg1=         800
         NFxFlg=           0 DoJE=F BraDBF=F KetDBF=F FulRan=T
         wScrn=  0.000000 ICntrl=    2127 IOpCl=  0 I1Cent=           0 NGrid=           0
         NMat0=    1 NMatS0=      1 NMatT0=    0 NMatD0=    1 NMtDS0=    0 NMtDT0=    0
 Symmetry not used in FoFCou.
 Leave Link  703 at Wed May  2 18:55:02 2018, MaxMem=   268435456 cpu:        15.4
 (Enter /ihome/crc/build/g09/g09-D.01/TAR/g09/l716.exe)
 Dipole        = 1.74140621D+00-7.12421114D-01-1.07783472D-04
 ***** Axes restored to original set *****
 -------------------------------------------------------------------
 Center     Atomic                   Forces (Hartrees/Bohr)
 Number     Number              X              Y              Z
 -------------------------------------------------------------------
      1        6          -0.002010486    0.001118458   -0.000062229
      2        6           0.000732628   -0.000721305    0.000039158
      3        6           0.000504386   -0.000410180    0.000022258
      4        6          -0.000630953   -0.000308648    0.000015489
      5        6          -0.001007768    0.006727931   -0.000363356
      6        6           0.000945803   -0.001495910    0.000082159
      7        1           0.000655184   -0.000844425    0.000045561
      8        1           0.000073569    0.000076598   -0.000003977
[...]
 Predicted change in Energy=-2.351501D-08
 Optimization completed.
    -- Stationary point found.
                           ----------------------------
                           !   Optimized Parameters   !
                           ! (Angstroms and Degrees)  !
 --------------------------                            --------------------------
 ! Name  Definition              Value          Derivative Info.                !
 --------------------------------------------------------------------------------
 ! R1    R(1,2)                  1.3922         -DE/DX =    0.0                 !
 ! R2    R(1,5)                  1.3984         -DE/DX =    0.0                 !
 ! R3    R(1,7)                  1.0846         -DE/DX =    0.0                 !
 ! R4    R(2,3)                  1.3944         -DE/DX =    0.0                 !
 ! R5    R(2,8)                  1.0857         -DE/DX =    0.0                 !
 ! R6    R(3,4)                  1.3963         -DE/DX =    0.0                 !
 ! R7    R(3,9)                  1.0864         -DE/DX =    0.0                 !
 ! R8    R(4,6)                  1.3895         -DE/DX =    0.0                 !
 ! R9    R(4,10)                 1.0859         -DE/DX =    0.0                 !
 ! R10   R(5,6)                  1.4024         -DE/DX =    0.0                 !
 ! R11   R(5,12)                 1.4818         -DE/DX =    0.0                 !
 ! R12   R(6,11)                 1.0856         -DE/DX =    0.0                 !
 ! R13   R(12,13)                1.1916         -DE/DX =    0.0                 !
 ! R14   R(12,14)                1.802          -DE/DX =    0.0                 !
 ! A1    A(2,1,5)              119.5468         -DE/DX =    0.0                 !
 ! A2    A(2,1,7)              119.8344         -DE/DX =    0.0                 !
 ! A3    A(5,1,7)              120.6188         -DE/DX =    0.0                 !
 ! A4    A(1,2,3)              120.1658         -DE/DX =    0.0                 !
 ! A5    A(1,2,8)              119.626          -DE/DX =    0.0                 !
 ! A6    A(3,2,8)              120.2082         -DE/DX =    0.0                 !
 ! A7    A(2,3,4)              120.2749         -DE/DX =    0.0                 !
 ! A8    A(2,3,9)              119.8495         -DE/DX =    0.0                 !
 ! A9    A(4,3,9)              119.8756         -DE/DX =    0.0                 !
 ! A10   A(3,4,6)              119.9361         -DE/DX =    0.0                 !
 ! A11   A(3,4,10)             120.2433         -DE/DX =    0.0                 !
 ! A12   A(6,4,10)             119.8206         -DE/DX =    0.0                 !
 ! A13   A(1,5,6)              120.3135         -DE/DX =    0.0                 !
 ! A14   A(1,5,12)             123.4929         -DE/DX =    0.0                 !
 ! A15   A(6,5,12)             116.1936         -DE/DX =    0.0                 !
 ! A16   A(4,6,5)              119.763          -DE/DX =    0.0                 !
 ! A17   A(4,6,11)             120.7356         -DE/DX =    0.0                 !
 ! A18   A(5,6,11)             119.5014         -DE/DX =    0.0                 !
 ! A19   A(5,12,13)            126.1328         -DE/DX =    0.0001              !
 ! A20   A(5,12,14)            115.893          -DE/DX =    0.0                 !
 ! A21   A(13,12,14)           117.9741         -DE/DX =    0.0                 !
 ! D1    D(5,1,2,3)              0.0001         -DE/DX =    0.0                 !
 ! D2    D(5,1,2,8)           -179.9999         -DE/DX =    0.0                 !
 ! D3    D(7,1,2,3)           -179.9998         -DE/DX =    0.0                 !
 ! D4    D(7,1,2,8)              0.0002         -DE/DX =    0.0                 !
 ! D5    D(2,1,5,6)             -0.0001         -DE/DX =    0.0                 !
 ! D6    D(2,1,5,12)           179.9995         -DE/DX =    0.0                 !
 ! D7    D(7,1,5,6)           -180.0002         -DE/DX =    0.0                 !
 ! D8    D(7,1,5,12)            -0.0006         -DE/DX =    0.0                 !
 ! D9    D(1,2,3,4)              0.0            -DE/DX =    0.0                 !
 ! D10   D(1,2,3,9)            180.0            -DE/DX =    0.0                 !
 ! D11   D(8,2,3,4)            180.0001         -DE/DX =    0.0                 !
 ! D12   D(8,2,3,9)              0.0            -DE/DX =    0.0                 !
 ! D13   D(2,3,4,6)             -0.0001         -DE/DX =    0.0                 !
 ! D14   D(2,3,4,10)           179.9999         -DE/DX =    0.0                 !
 ! D15   D(9,3,4,6)            179.9999         -DE/DX =    0.0                 !
 ! D16   D(9,3,4,10)            -0.0001         -DE/DX =    0.0                 !
 ! D17   D(3,4,6,5)              0.0001         -DE/DX =    0.0                 !
 ! D18   D(3,4,6,11)          -179.9999         -DE/DX =    0.0                 !
 ! D19   D(10,4,6,5)          -179.9999         -DE/DX =    0.0                 !
 ! D20   D(10,4,6,11)            0.0001         -DE/DX =    0.0                 !
 ! D21   D(1,5,6,4)              0.0            -DE/DX =    0.0                 !
 ! D22   D(1,5,6,11)          -180.0            -DE/DX =    0.0                 !
 ! D23   D(12,5,6,4)          -179.9996         -DE/DX =    0.0                 !
 ! D24   D(12,5,6,11)            0.0004         -DE/DX =    0.0                 !
 ! D25   D(1,5,12,13)         -179.9914         -DE/DX =    0.0                 !
 ! D26   D(1,5,12,14)           -0.0048         -DE/DX =    0.0                 !
 ! D27   D(6,5,12,13)            0.0082         -DE/DX =    0.0                 !
 ! D28   D(6,5,12,14)         -180.0052         -DE/DX =    0.0                 !
 --------------------------------------------------------------------------------
 GradGradGradGradGradGradGradGradGradGradGradGradGradGradGradGradGradGrad

 Leave Link  103 at Wed May  2 19:00:49 2018, MaxMem=   268435456 cpu:         5.2
 (Enter /ihome/crc/build/g09/g09-D.01/TAR/g09/l9999.exe)
 1\1\GINC-SMP-N31\Freq\RM062X\6-31+G(d)\C7H5Cl1O1\ELK72\02-May-2018\0\\
 #P Geom=AllCheck Guess=TCheck SCRF=Check GenChk RM062X/6-31+G(d) Freq\
 \1.g09\\0,1\C,-2.3898810045,0.7677406689,-0.0802778268\C,-3.550961563,
 0.0006266105,-0.0410751473\C,-3.4701848971,-1.3895178851,0.0328388496\
 C,-2.2256056425,-2.0214293532,0.0680261185\C,-1.143565184,0.134604307,
 -0.0450255832\C,-1.0616936351,-1.2633838124,0.0293066824\H,-2.45897240
 78,1.8486548107,-0.1377554509\H,-4.5192669841,0.4908504403,-0.06837538
 44\H,-4.3795735134,-1.9831605151,0.0631618492\H,-2.1632972078,-3.10405
 87699,0.1255907557\H,-0.0872546544,-1.7411662827,0.0559540547\C,0.1456
 333514,0.8642647349,-0.0820822503\O,1.2314560129,0.3741477513,-0.05477
 92897\Cl,0.0309925102,2.6600752317,-0.1777262226\\Version=EM64L-G09Rev
 D.01\State=1-A\HF=-805.0278805\RMSD=4.214e-09\RMSF=2.539e-05\ZeroPoint
 =0.1020466\Thermal=0.1093799\Dipole=-1.7511014,-0.8969348,0.0454579\Di
 poleDeriv=0.1517199,0.3333545,-0.0173718,-0.0462776,0.0027285,-0.00533
 56,0.0027526,-0.0048629,-0.096424,0.059666,-0.2327751,0.0126654,-0.174
 7831,-0.3106724,0.0071714,0.009597,0.0070978,-0.1716969,0.1569673,-0.0
 190037,0.0013648,-0.0068505,0.1666201,-0.0148947,0.0007141,-0.0149172,
 -0.1129788,-0.3827907,0.062149,-0.0035859,-0.0481262,0.1026682,-0.0141
 94,0.0022744,-0.014041,-0.1627555,-0.6938129,-0.3274972,0.0165333,-0.5
 780973,-0.5477046,0.0264581,0.0298344,0.0267739,-0.0369558,0.1160238,-
 0.155575,0.0085576,0.3249363,0.0486855,-0.0077235,-0.0169901,-0.008369
 1,-0.1043144,0.1302815,-0.0037691,0.0001534,-0.0029751,0.0245457,0.007
 523,0.000108,0.0075221,0.1659426,-0.0357887,0.0515675,-0.0030135,0.070
 3098,0.0624711,0.0060444,-0.0040072,0.0060246,0.1742464,-0.0107089,-0.
 0765162,0.0038314,-0.0822143,0.0538456,0.0058209,0.0041307,0.0058267,0
 .1652025,0.0912201,0.0006137,-0.0001396,0.0003808,-0.0600382,0.0124026
 ,-0.0001245,0.0124023,0.1728734,0.0295037,0.0685553,-0.0038247,0.02906
 39,0.1102789,0.0031665,-0.0017241,0.0032143,0.1690184,2.2583064,-0.083
 6525,0.0069662,0.4456265,2.9646779,-0.1401306,-0.021224,-0.1407772,0.3
 23814,-1.6576233,0.4031965,-0.0231477,0.2494624,-1.0745852,0.0398652,-
 0.0148556,0.0399784,-0.3324802,-0.212964,-0.0206476,0.0010111,-0.18045
 54,-1.543521,0.073826,0.0095144,0.0741271,-0.1534917\Polar=144.5184835
 ,12.7804986,148.2516643,-0.571268,-4.5850112,61.849554\PG=C01 [X(C7H5C
 l1O1)]\NImag=0\\0.68670825,0.00189883,0.76607140,0.00061515,-0.0331122
 7,0.14409212,-0.29154129,-0.14079441,0.00717635,0.75373746,-0.06465396
 ,-0.20006275,0.00709934,-0.03019529,0.70545414,0.00313438,0.00699999,-
 0.06509694,0.00241461,-0.03025738,0.13793388,0.04892252,-0.02543424,0.
 00140735,-0.13726322,-0.02498665,0.00123060,0.74074556,-0.08104594,-0.
 03214521,0.00189836,0.05140544,-0.35426531,0.01547737,0.03476249,0.713
 48041,0.00436001,0.00197113,0.00551422,-0.00282522,0.01537679,-0.06486
 154,-0.00106210,-0.03017497,0.14590290,-0.07845499,-0.00345609,0.00008
 697,0.03705630,0.08750237,-0.00460545,-0.30520830,0.04905240,-0.002920
 13,0.69002272,-0.00643123,-0.00111936,-0.00021617,0.03405068,-0.016033
 69,0.00124165,0.12553744,-0.18010773,0.00627398,-0.00020637,0.76468976
 ,0.00024479,-0.00021211,-0.00502044,-0.00176754,0.00131180,0.00643482,
 -0.00698108,0.00617331,-0.06538369,0.00073771,-0.03333300,0.13865525,-
 0.28323362,0.12427129,-0.00689056,-0.05712250,-0.03809314,0.00193817,-
 0.02355419,0.03294967,-0.00177146,0.03618126,-0.02356175,0.00128933,0.
 68293146,0.06453036,-0.17730792,0.00624108,0.01738700,0.06401804,-0.00
 301453,0.03291283,-0.05317380,0.00250721,-0.07955064,-0.03022554,0.001
 87000,-0.05342390,0.67404222,-0.00371894,0.00631934,-0.06167536,-0.001
 00721,-0.00308646,0.00697611,-0.00176954,0.00250700,-0.00690409,0.0042
 6231,0.00194381,0.00687813,0.00355367,-0.02883578,0.13381133,0.0316117
 8,0.03173906,-0.00165137,-0.01723945,-0.02974297,0.00156293,-0.0582474
 3,0.02068468,-0.00118225,-0.29479758,-0.14439817,0.00736395,-0.1231814
 0,0.05398916,-0.00294813,0.76640999,0.08424367,-0.01890329,0.00142225,
 -0.03320500,-0.06257715,0.00302041,-0.03420456,0.07511063,-0.00373287,
 -0.06852105,-0.20401601,0.00731300,-0.00523103,-0.32173944,0.01383885,
 -0.01797746,0.68646295,-0.00443850,0.00135249,0.00571435,0.00174661,0.
 00302522,-0.00501994,0.00173218,-0.00366083,0.00584470,0.00333506,0.00
 721293,-0.06496612,0.00019640,0.01391685,-0.06170450,0.00177606,-0.029
 00736,0.14212287,-0.06058552,0.02207843,-0.00119937,0.00648195,-0.0274
 0165,0.00145578,-0.00449697,-0.00256517,0.00012015,-0.00090267,-0.0002
 0130,0.00001080,0.00408861,0.02688971,-0.00142673,-0.00541292,0.001413
 67,-0.00009039,0.06193723,0.02267999,-0.34948916,0.01647780,0.00273923
 ,-0.01023837,0.00084837,-0.00260044,0.00017216,0.00039714,-0.00039707,
 0.00053641,-0.00008160,-0.00005278,-0.00903197,0.00066482,0.00230277,0
 .00120634,0.00027125,-0.02014391,0.36979881,-0.00123213,0.01647722,-0.
 04055415,-0.00014415,0.00080880,0.00563058,0.00012204,0.00039706,0.007
 69544,0.00002109,-0.00008134,-0.00098605,0.00000419,0.00070024,0.00345
 337,-0.00013761,0.00027010,0.00624296,0.00111592,-0.01827449,0.0270515
 7,-0.01798168,0.01301210,-0.00071939,-0.29228452,0.11732786,-0.0065614
 2,0.00367945,-0.00167789,0.00008868,0.00136483,-0.00037899,0.00001234,
 -0.00217406,-0.00407414,0.00020355,0.00025570,-0.00056112,0.00003120,0
 .00102379,0.00016617,-0.00000165,0.30642262,-0.01787377,0.01181357,-0.
 00045476,0.11803214,-0.11856571,0.00435802,0.02893360,-0.00874136,0.00
 071382,-0.00093586,-0.00558645,0.00068329,-0.00296573,-0.00153422,0.00
 047349,-0.00076022,-0.00097524,0.00000678,0.00051110,0.00088197,-0.000
 28177,-0.12495720,0.12121026,0.00092051,-0.00041413,0.00371403,-0.0065
 9889,0.00435706,-0.03964709,-0.00153656,0.00067358,0.00394894,0.000041
 90,0.00068396,0.00726951,0.00014478,0.00047227,0.00743399,0.00004178,0
 .00000699,-0.00082881,-0.00001997,-0.00028227,-0.00442343,0.00700129,-
 0.00515953,0.02740951,0.00129951,0.00118086,-0.00007093,0.00653537,0.0
 0346571,-0.00018238,-0.26367166,-0.13253615,0.00674635,-0.01705957,-0.
 01694828,0.00087055,0.00012434,0.00093335,-0.00004880,-0.00365972,0.00
 349989,-0.00020030,0.00020101,0.00024881,-0.00001252,0.00053497,-0.000
 37503,0.00002608,0.27545835,0.00138420,-0.00549877,0.00069522,-0.02726
 642,-0.01129310,0.00084333,-0.13237211,-0.14738898,0.00539046,0.013662
 89,0.01221179,-0.00035237,0.00088694,-0.00074894,0.00001674,0.00329143
 ,-0.00071662,0.00043226,-0.00134972,-0.00051288,0.00000833,0.00021510,
 0.00126044,-0.00028709,0.14158057,0.15151073,-0.00008185,0.00069493,0.
 00752423,0.00144938,0.00088391,0.00522021,0.00673759,0.00539021,-0.042
 86733,-0.00075455,-0.00039260,0.00525726,-0.00004629,0.00001691,-0.000
 45607,-0.00018925,0.00043239,0.00731977,0.00007238,0.00001045,-0.00032
 287,-0.00000527,-0.00028790,-0.00413702,-0.00719146,-0.00638804,0.0280
 2455,-0.00123536,-0.00011676,0.00000561,-0.00504897,0.00184238,-0.0001
 1396,0.00323984,0.02929420,-0.00155641,-0.06021094,0.01812234,-0.00099
 004,-0.00410867,-0.00229289,0.00010610,0.00556705,-0.02787806,0.001482
 40,0.00017377,-0.00001621,0.00000248,0.00007057,0.00146946,-0.00007792
 ,0.00115520,-0.00057994,0.00003764,0.05913444,0.00011542,0.00055647,-0
 .00007168,0.00235418,0.00072473,0.00034948,-0.00157797,-0.00823064,0.0
 0064931,0.01806838,-0.34697543,0.01638464,-0.00305374,0.00043196,0.000
 38338,0.00283860,-0.01143347,0.00081669,-0.00000193,-0.00006954,-0.000
 05267,-0.00017013,-0.00048519,0.00002533,-0.00001560,0.00065653,-0.000
 25092,-0.01902139,0.36449422,-0.00000673,-0.00007197,-0.00079237,-0.00
 014120,0.00034878,0.00722953,0.00008273,0.00068990,0.00400117,-0.00098
 720,0.01638476,-0.03970316,0.00014665,0.00038433,0.00770840,-0.0001484
 5,0.00077632,0.00383649,0.00000173,-0.00005268,-0.00105861,0.00000913,
 0.00002749,-0.00000527,0.00000770,-0.00025165,-0.00405537,0.00105298,-
 0.01798638,0.02716323,0.00135933,-0.00048911,0.00001979,0.00010708,-0.
 00080138,0.00004404,-0.00237896,-0.00347142,0.00017090,-0.01622449,0.0
 1258590,-0.00069694,0.00298860,0.00048193,-0.00002676,-0.29359615,0.11
 748728,-0.00656994,0.00014613,-0.00018976,0.00000941,-0.00002720,0.000
 08943,-0.00000342,-0.00081031,0.00067652,-0.00003652,0.00106424,0.0001
 2874,0.00000048,0.30898857,-0.00156793,-0.00557190,0.00061701,-0.00059
 001,-0.00049833,-0.00002902,-0.00336626,-0.00180735,0.00050780,-0.0173
 7568,0.01261473,-0.00039614,0.02763093,-0.00869606,0.00070952,0.116462
 91,-0.11705069,0.00419722,0.00145243,-0.00038984,0.00005653,0.00009042
 ,0.00013632,-0.00006225,-0.00090799,0.00047459,-0.00004438,0.00057268,
 0.00080692,-0.00028276,-0.12411025,0.11946030,0.00007712,0.00061840,0.
 00605535,0.00003276,-0.00002934,-0.00102859,0.00016524,0.00050772,0.00
 781340,0.00089395,-0.00035659,0.00560482,-0.00146838,0.00067425,0.0039
 4560,-0.00651521,0.00419817,-0.04111111,-0.00007778,0.00005436,0.00063
 595,-0.00000347,-0.00006226,-0.00103509,0.00004759,-0.00004231,-0.0003
 3670,-0.00002305,-0.00028336,-0.00451799,0.00695966,-0.00507270,0.0272
 6248,-0.03723718,-0.01332426,0.00066278,-0.00086029,0.01015718,-0.0005
 5088,-0.00043333,0.00277500,-0.00014684,0.01047712,0.00247597,-0.00012
 682,-0.16650867,-0.04951014,0.00249868,-0.00491750,-0.02926974,0.00154
 679,0.00067087,0.00005190,0.00000320,-0.00003447,-0.00083077,0.0000431
 9,-0.00005399,0.00018640,-0.00000813,0.00058540,0.00083708,-0.00004427
 ,-0.00096451,0.00342581,-0.00017838,0.96357376,-0.00078010,0.01774137,
 -0.00109517,0.00806668,0.00303406,0.00028505,0.00397782,-0.00276997,0.
 00010756,0.00161338,-0.00590735,0.00070691,-0.05823383,-0.12337040,0.0
 0279470,-0.02824292,-0.02245030,0.00121918,0.00287209,-0.00132101,-0.0
 0014274,0.00169931,0.00085619,-0.00000841,0.00023391,-0.00004817,-0.00
 007417,-0.00068995,-0.00001654,0.00002252,-0.00126166,-0.00205917,-0.0
 0009777,-0.16434448,0.39341730,-0.00000248,-0.00111316,-0.00282186,-0.
 00044047,0.00028747,0.00818240,-0.00021041,0.00010605,-0.00084798,-0.0
 0008202,0.00070763,0.00732697,0.00296713,0.00280962,-0.06943438,0.0014
 9199,0.00121999,0.00114686,-0.00014632,-0.00014624,-0.00407004,-0.0000
 9121,-0.00001171,0.00065749,-0.00001059,-0.00007423,-0.00144683,0.0000
 3678,0.00002449,0.00042379,0.00007092,-0.00009180,-0.00386496,0.009684
 16,-0.01244509,0.16326053,0.00630837,-0.00832275,0.00044607,-0.0036145
 2,-0.00352425,0.00018421,-0.00122120,0.00101631,-0.00005562,-0.0021349
 7,0.00047027,-0.00002679,-0.06985080,0.00812071,-0.00054169,-0.0000731
 9,0.01013764,-0.00053844,0.00073544,0.00021657,-0.00001121,-0.00084103
 ,-0.00040180,0.00002070,-0.00004826,-0.00016956,0.00000861,-0.00015119
 ,-0.00036161,0.00001900,-0.00067507,-0.00146708,0.00007673,-0.72584830
 ,0.24419476,-0.01374928,0.80346518,-0.00221657,-0.00241049,0.00029965,
 -0.00137494,0.00089015,-0.00013983,-0.00132333,0.00050202,-0.00002522,
 0.00125123,0.00190863,-0.00014478,-0.00500418,0.01954722,0.00003900,-0
 .00334594,-0.00635004,0.00031846,-0.00094487,0.00019207,0.00002170,-0.
 00027851,-0.00019728,-0.00000990,-0.00020153,0.00011087,0.00000782,0.0
 0004856,-0.00001780,0.00000246,-0.00191677,0.00163160,-0.00006279,0.28
 419755,-0.19416615,0.00726112,-0.31289072,0.24341958,0.00012142,0.0002
 9274,0.00326910,0.00007082,-0.00014265,-0.00170065,0.00006846,-0.00002
 213,0.00006123,-0.00006777,-0.00014587,-0.00084447,0.00015207,0.000053
 68,0.02040233,0.00017735,0.00033415,-0.00029725,0.00005024,0.00002321,
 0.00062355,0.00001428,-0.00000999,-0.00037605,0.00001030,0.00000790,0.
 00026301,-0.00000279,0.00000196,0.00002716,0.00010047,-0.00006187,0.00
 050573,-0.01587279,0.00721584,-0.06415906,0.01754088,-0.01184342,0.028
 07016,-0.00594012,-0.00224296,0.00011155,0.00105660,-0.00089620,0.0000
 4936,-0.00011210,-0.00064363,0.00003391,-0.00010871,-0.00111651,0.0000
 5973,0.00341964,-0.01639334,0.00086350,-0.00271918,0.00006586,-0.00000
 912,-0.00406071,-0.00500528,0.00026092,-0.00000897,0.00006467,-0.00000
 347,-0.00000521,-0.00014628,0.00000773,-0.00023538,-0.00014003,0.00000
 744,0.00002276,-0.00024998,0.00001324,-0.03844891,-0.00910500,0.000481
 80,-0.00605045,0.04400002,-0.00236296,0.05319075,-0.00028297,-0.003673
 95,0.00019934,-0.00060928,-0.00058670,0.00001707,-0.00025862,-0.000634
 85,0.00003785,-0.00070789,-0.00198974,0.00007706,0.00388123,-0.0322111
 5,0.00223160,-0.00684093,0.00343234,-0.00010113,-0.00260887,-0.0017349
 8,0.00009302,-0.00041299,-0.00007329,0.00000440,-0.00015850,-0.0000174
 9,0.00000139,-0.00075440,-0.00044222,0.00000888,0.00079052,0.00094888,
 -0.00004577,-0.04682749,-0.06293985,0.00146587,0.06298152,-0.06506038,
 0.00429647,-0.00819133,0.16498338,0.00000726,0.00019740,0.00007772,0.0
 0003415,0.00001665,-0.00025279,0.00001349,0.00003736,0.00008263,0.0000
 3812,0.00007686,-0.00052285,-0.00021570,0.00220386,0.00956512,0.000358
 21,-0.00009238,0.00169974,0.00013355,0.00008989,0.00008175,0.00002194,
 0.00000502,0.00001928,0.00000841,0.00000144,0.00001315,0.00004016,0.00
 000972,-0.00025701,-0.00004210,-0.00004715,0.00007112,0.00248932,0.001
 51161,-0.03435293,-0.00337317,0.00427575,0.01415522,0.00048636,-0.0082
 8604,0.00961984\\-0.00003236,-0.00001681,-0.00000026,0.00001103,-0.000
 03166,0.00000211,0.00003361,-0.00001282,0.00000069,0.00005557,-0.00000
 437,0.00000064,-0.00002160,0.00003287,-0.00000949,-0.00000584,-0.00002
 190,0.00000073,-0.00003311,-0.00000512,0.00000016,-0.00001850,-0.00004
 352,0.00000236,0.00001849,-0.00003421,0.00000172,0.00003790,-0.0000045
 1,0.00000043,0.00003672,0.00003506,-0.00000190,0.00000104,0.00002914,0
 .00002459,-0.00003359,0.00001807,-0.00001216,-0.00004934,0.00005977,-0
 .00000962\\\@


 SI MONUMENTUM REQUIRIS, CIRCUMSPICE
     -- FROM SIR CHRISTOPHER WREN'S TOMBSTONE
 Job cpu time:       0 days  0 hours 10 minutes 49.4 seconds.
 File lengths (MBytes):  RWF=     95 Int=      0 D2E=      0 Chk=      8 Scr=      1
 Normal termination of Gaussian 09 at Wed May  2 19:00:49 2018.
 Read checkpoint file 1.chk
 Write formatted file 1.fchk
 FChkPn:  Coordinates translated and rotated.
 FChkPn:  Coordinates match /B/ after translation and rotation.
