 Entering Gaussian System, Link 0=g09
 Initial command:
 /ihome/crc/build/g09/g09-D.01/TAR/g09/l1.exe "/scratch/slurm-1121902/Gau-345434.inp" -scrdir="/scratch/slurm-1121902/"
 Entering Link 1 = /ihome/crc/build/g09/g09-D.01/TAR/g09/l1.exe PID=    345435.
  
 Copyright (c) 1988,1990,1992,1993,1995,1998,2003,2009,2013,
            Gaussian, Inc.  All Rights Reserved.
  
 This is part of the Gaussian(R) 09 program.  It is based on
 the Gaussian(R) 03 system (copyright 2003, Gaussian, Inc.),
 the Gaussian(R) 98 system (copyright 1998, Gaussian, Inc.),
 the Gaussian(R) 94 system (copyright 1995, Gaussian, Inc.),
 the Gaussian 92(TM) system (copyright 1992, Gaussian, Inc.),
 the Gaussian 90(TM) system (copyright 1990, Gaussian, Inc.),
 the Gaussian 88(TM) system (copyright 1988, Gaussian, Inc.),
 the Gaussian 86(TM) system (copyright 1986, Carnegie Mellon
 University), and the Gaussian 82(TM) system (copyright 1983,
 Carnegie Mellon University). Gaussian is a federally registered
 trademark of Gaussian, Inc.
  
 This software contains proprietary and confidential information,
 including trade secrets, belonging to Gaussian, Inc.
  
 This software is provided under written license and may be
 used, copied, transmitted, or stored only in accord with that
 written license.
  
 The following legend is applicable only to US Government
 contracts under FAR:
  
                    RESTRICTED RIGHTS LEGEND
  
 Use, reproduction and disclosure by the US Government is
 subject to restrictions as set forth in subparagraphs (a)
 and (c) of the Commercial Computer Software - Restricted
 Rights clause in FAR 52.227-19.
  
 Gaussian, Inc.
 340 Quinnipiac St., Bldg. 40, Wallingford CT 06492
  
  
 ---------------------------------------------------------------
 Warning -- This program may not be used in any manner that
 competes with the business of Gaussian, Inc. or will provide
 assistance to any competitor of Gaussian, Inc.  The licensee
 of this program is prohibited from giving any competitor of
 Gaussian, Inc. access to this program.  By using this program,
 the user acknowledges that Gaussian, Inc. is engaged in the
 business of creating and licensing software in the field of
 computational chemistry and represents and warrants to the
 licensee that it is not a competitor of Gaussian, Inc. and that
 it will not use this program in any manner prohibited above.
 ---------------------------------------------------------------
  

 Cite this work as:
 Gaussian 09, Revision D.01,
 M. J. Frisch, G. W. Trucks, H. B. Schlegel, G. E. Scuseria, 
 M. A. Robb, J. R. Cheeseman, G. Scalmani, V. Barone, B. Mennucci, 
 G. A. Petersson, H. Nakatsuji, M. Caricato, X. Li, H. P. Hratchian, 
 A. F. Izmaylov, J. Bloino, G. Zheng, J. L. Sonnenberg, M. Hada, 
 M. Ehara, K. Toyota, R. Fukuda, J. Hasegawa, M. Ishida, T. Nakajima, 
 Y. Honda, O. Kitao, H. Nakai, T. Vreven, J. A. Montgomery, Jr., 
 J. E. Peralta, F. Ogliaro, M. Bearpark, J. J. Heyd, E. Brothers, 
 K. N. Kudin, V. N. Staroverov, T. Keith, R. Kobayashi, J. Normand, 
 K. Raghavachari, A. Rendell, J. C. Burant, S. S. Iyengar, J. Tomasi, 
 M. Cossi, N. Rega, J. M. Millam, M. Klene, J. E. Knox, J. B. Cross, 
 V. Bakken, C. Adamo, J. Jaramillo, R. Gomperts, R. E. Stratmann, 
 O. Yazyev, A. J. Austin, R. Cammi, C. Pomelli, J. W. Ochterski, 
 R. L. Martin, K. Morokuma, V. G. Zakrzewski, G. A. Voth, 
 P. Salvador, J. J. Dannenberg, S. Dapprich, A. D. Daniels, 
 O. Farkas, J. B. Foresman, J. V. Ortiz, J. Cioslowski, 
 and D. J. Fox, Gaussian, Inc., Wallingford CT, 2013.
 
 ******************************************
 Gaussian 09:  EM64L-G09RevD.01 24-Apr-2013
                 8-May-2018 
 ******************************************
 %NProc=8
 Will use up to    8 processors via shared memory.
 %Mem=8GB
 %chk=3.chk
 ----------------------------------------------------------------------
 #p freq m062x/6-311+g(d,p) scrf=(smd,solvent=chloroform) Geom=Checkpoi
 nt pop=nbo
 ----------------------------------------------------------------------
 1/10=4,29=2,30=1,38=1/1,3;
 2/12=2,40=1/2;
 3/5=4,6=6,7=111,11=2,14=-4,16=1,25=1,30=1,70=32201,71=2,72=7,74=-55,140=1/1,2,3;
 4//1;
 5/5=2,38=5,53=7,98=1/2;
 8/6=4,10=90,11=11/1;
 11/6=1,8=1,9=11,15=111,16=1/1,2,10;
 10/6=1/2;
 6/7=2,8=2,9=2,10=2,18=1,28=1,40=1/1,7;
 7/8=1,10=1,25=1/1,2,3,16;
 1/10=4,30=1/3;
 99//99;
 Leave Link    1 at Tue May  8 16:14:46 2018, MaxMem=  1073741824 cpu:         0.2
 (Enter /ihome/crc/build/g09/g09-D.01/TAR/g09/l101.exe)
 -----
 3.g09
 -----
 Structure from the checkpoint file:  "3.chk"
 Charge =  0 Multiplicity = 1
 Redundant internal coordinates found in file.
 C,0,-5.9326813136,-6.1160992655,-0.8640323725
 C,0,-4.8341720502,-5.9821441244,-1.7158145946
 C,0,-6.0538411735,-5.2897758268,0.2461237073
 C,0,-5.0734571145,-4.3209627006,0.5040120397
 C,0,-3.9722261938,-4.1878133466,-0.3475523225
 C,0,-3.8566984021,-5.0218967111,-1.4560018055
 N,0,-1.0810465956,1.002394052,0.6705578694
 C,0,-1.2971454857,1.4272907491,-0.5812722821
 C,0,-0.4793452733,2.3910531562,-1.1753839071
 C,0,0.5822441054,2.935417752,-0.4496223384
 C,0,0.7859715311,2.4791961827,0.8523800389
 C,0,-0.0674190875,1.5065127466,1.3839585769
 H,0,-6.6939049117,-6.8634520015,-1.0668213293
 H,0,-4.740837155,-6.6281125358,-2.5843702579
 H,0,-3.2084527508,-3.4432987723,-0.1499085001
 H,0,-3.001027914,-4.9198850707,-2.1167301015
 H,0,-6.9033370182,-5.3821132985,0.9158486541
 C,0,-2.4923777576,0.7887549764,-1.2911184401
 H,0,-0.6573398658,2.7245813465,-2.192834325
 C,0,0.0819901494,0.9429972991,2.7981052183
 C,0,1.4606695672,4.001149793,-1.0487857651
 H,0,1.6054459682,2.8840283488,1.4374058293
 C,0,-5.2848149838,-3.4800518221,1.7064596148
 O,0,-6.1652477732,-3.6010379391,2.5007796274
 Cl,0,-4.0943190621,-2.1524439006,1.953421101
 H,0,1.6501106939,3.8075844529,-2.1091146896
 H,0,2.4205891664,4.0629906727,-0.5282408931
 H,0,0.9750915356,4.9814399654,-0.9744222946
 C,0,1.2631623413,1.5607431253,3.5508866832
 C,0,0.293060583,-0.5763107236,2.7020310616
 C,0,-1.2105970978,1.2268727873,3.57882781
 C,0,-2.6709431202,1.3091125461,-2.7193025649
 C,0,-3.7611330813,1.1009091579,-0.4819156507
 C,0,-2.2853106214,-0.7335584115,-1.3355984159
 H,0,-3.9480838844,2.1809726793,-0.4428815113
 H,0,-3.6675599423,0.7332606093,0.5443673551
 H,0,-4.6315525906,0.6198375454,-0.9445647587
 H,0,-2.8512950659,2.3903285332,-2.7405836424
 H,0,-3.5380837899,0.8206301647,-3.1781617956
 H,0,-1.797000385,1.0927013455,-3.3450637603
 H,0,-1.3974945817,-0.9939232789,-1.9252144275
 H,0,-3.1569773903,-1.2162840633,-1.7948297123
 H,0,-2.1553764482,-1.1331191218,-0.3251809599
 H,0,-1.3873144695,2.3057075852,3.6669509719
 H,0,-1.1376523994,0.8091177517,4.5901514784
 H,0,-2.0747107924,0.7775714768,3.0797938808
 H,0,1.2119885927,-0.8122265839,2.1516042966
 H,0,-0.5467771744,-1.0547408622,2.1889753009
 H,0,0.3778426406,-1.0079343709,3.7065887713
 H,0,2.2163458767,1.3648614485,3.0458722526
 H,0,1.3243091404,1.1221870073,4.5533980793
 H,0,1.1504430347,2.6448273149,3.6700903298
 Recover connectivity data from disk.
 NAtoms=     52 NQM=       52 NQMF=       0 NMMI=      0 NMMIF=      0
                NMic=       0 NMicF=      0.
                    Isotopes and Nuclear Properties:
 (Nuclear quadrupole moments (NQMom) in fm**2, nuclear magnetic moments (NMagM)
  in nuclear magnetons)

  Atom         1           2           3           4           5           6           7           8           9          10
 IAtWgt=          12          12          12          12          12          12          14          12          12          12
 AtmWgt=  12.0000000  12.0000000  12.0000000  12.0000000  12.0000000  12.0000000  14.0030740  12.0000000  12.0000000  12.0000000
 NucSpn=           0           0           0           0           0           0           2           0           0           0
 AtZEff=  -3.6000000  -3.6000000  -3.6000000  -3.6000000  -3.6000000  -3.6000000  -4.5500000  -3.6000000  -3.6000000  -3.6000000
 NQMom=    0.0000000   0.0000000   0.0000000   0.0000000   0.0000000   0.0000000   2.0440000   0.0000000   0.0000000   0.0000000
 NMagM=    0.0000000   0.0000000   0.0000000   0.0000000   0.0000000   0.0000000   0.4037610   0.0000000   0.0000000   0.0000000
 AtZNuc=   6.0000000   6.0000000   6.0000000   6.0000000   6.0000000   6.0000000   7.0000000   6.0000000   6.0000000   6.0000000

  Atom        11          12          13          14          15          16          17          18          19          20
 IAtWgt=          12          12           1           1           1           1           1          12           1          12
 AtmWgt=  12.0000000  12.0000000   1.0078250   1.0078250   1.0078250   1.0078250   1.0078250  12.0000000   1.0078250  12.0000000
 NucSpn=           0           0           1           1           1           1           1           0           1           0
 AtZEff=  -3.6000000  -3.6000000  -1.0000000  -1.0000000  -1.0000000  -1.0000000  -1.0000000  -3.6000000  -1.0000000  -3.6000000
 NQMom=    0.0000000   0.0000000   0.0000000   0.0000000   0.0000000   0.0000000   0.0000000   0.0000000   0.0000000   0.0000000
 NMagM=    0.0000000   0.0000000   2.7928460   2.7928460   2.7928460   2.7928460   2.7928460   0.0000000   2.7928460   0.0000000
 AtZNuc=   6.0000000   6.0000000   1.0000000   1.0000000   1.0000000   1.0000000   1.0000000   6.0000000   1.0000000   6.0000000

  Atom        21          22          23          24          25          26          27          28          29          30
 IAtWgt=          12           1          12          16          35           1           1           1          12          12
 AtmWgt=  12.0000000   1.0078250  12.0000000  15.9949146  34.9688527   1.0078250   1.0078250   1.0078250  12.0000000  12.0000000
 NucSpn=           0           1           0           0           3           1           1           1           0           0
 AtZEff=  -3.6000000  -1.0000000  -3.6000000  -5.6000000 -14.2400000  -1.0000000  -1.0000000  -1.0000000  -3.6000000  -3.6000000
 NQMom=    0.0000000   0.0000000   0.0000000   0.0000000  -8.1650000   0.0000000   0.0000000   0.0000000   0.0000000   0.0000000
 NMagM=    0.0000000   2.7928460   0.0000000   0.0000000   0.8218740   2.7928460   2.7928460   2.7928460   0.0000000   0.0000000
 AtZNuc=   6.0000000   1.0000000   6.0000000   8.0000000  17.0000000   1.0000000   1.0000000   1.0000000   6.0000000   6.0000000

  Atom        31          32          33          34          35          36          37          38          39          40
 IAtWgt=          12          12          12          12           1           1           1           1           1           1
 AtmWgt=  12.0000000  12.0000000  12.0000000  12.0000000   1.0078250   1.0078250   1.0078250   1.0078250   1.0078250   1.0078250
 NucSpn=           0           0           0           0           1           1           1           1           1           1
 AtZEff=  -3.6000000  -3.6000000  -3.6000000  -3.6000000  -1.0000000  -1.0000000  -1.0000000  -1.0000000  -1.0000000  -1.0000000
 NQMom=    0.0000000   0.0000000   0.0000000   0.0000000   0.0000000   0.0000000   0.0000000   0.0000000   0.0000000   0.0000000
 NMagM=    0.0000000   0.0000000   0.0000000   0.0000000   2.7928460   2.7928460   2.7928460   2.7928460   2.7928460   2.7928460
 AtZNuc=   6.0000000   6.0000000   6.0000000   6.0000000   1.0000000   1.0000000   1.0000000   1.0000000   1.0000000   1.0000000

  Atom        41          42          43          44          45          46          47          48          49          50
 IAtWgt=           1           1           1           1           1           1           1           1           1           1
 AtmWgt=   1.0078250   1.0078250   1.0078250   1.0078250   1.0078250   1.0078250   1.0078250   1.0078250   1.0078250   1.0078250
 NucSpn=           1           1           1           1           1           1           1           1           1           1
 AtZEff=  -1.0000000  -1.0000000  -1.0000000  -1.0000000  -1.0000000  -1.0000000  -1.0000000  -1.0000000  -1.0000000  -1.0000000
 NQMom=    0.0000000   0.0000000   0.0000000   0.0000000   0.0000000   0.0000000   0.0000000   0.0000000   0.0000000   0.0000000
 NMagM=    2.7928460   2.7928460   2.7928460   2.7928460   2.7928460   2.7928460   2.7928460   2.7928460   2.7928460   2.7928460
 AtZNuc=   1.0000000   1.0000000   1.0000000   1.0000000   1.0000000   1.0000000   1.0000000   1.0000000   1.0000000   1.0000000

  Atom        51          52
 IAtWgt=           1           1
 AtmWgt=   1.0078250   1.0078250
 NucSpn=           1           1
 AtZEff=  -1.0000000  -1.0000000
 NQMom=    0.0000000   0.0000000
 NMagM=    2.7928460   2.7928460
 AtZNuc=   1.0000000   1.0000000
 Leave Link  101 at Tue May  8 16:14:46 2018, MaxMem=  1073741824 cpu:         1.4
 (Enter /ihome/crc/build/g09/g09-D.01/TAR/g09/l103.exe)

 GradGradGradGradGradGradGradGradGradGradGradGradGradGradGradGradGradGrad
 Berny optimization.
 Initialization pass.
                           ----------------------------
                           !    Initial Parameters    !
                           ! (Angstroms and Degrees)  !
 --------------------------                            --------------------------
 ! Name  Definition              Value          Derivative Info.                !
 --------------------------------------------------------------------------------
 ! R1    R(1,2)                  1.3965         calculate D2E/DX2 analytically  !
 ! R2    R(1,3)                  1.3892         calculate D2E/DX2 analytically  !
 ! R3    R(1,13)                 1.0859         calculate D2E/DX2 analytically  !
 ! R4    R(2,6)                  1.3946         calculate D2E/DX2 analytically  !
 ! R5    R(2,14)                 1.0865         calculate D2E/DX2 analytically  !
 ! R6    R(3,4)                  1.4022         calculate D2E/DX2 analytically  !
 ! R7    R(3,17)                 1.0857         calculate D2E/DX2 analytically  !
 ! R8    R(4,5)                  1.3984         calculate D2E/DX2 analytically  !
 ! R9    R(4,23)                 1.4825         calculate D2E/DX2 analytically  !
 ! R10   R(5,6)                  1.392          calculate D2E/DX2 analytically  !
 ! R11   R(5,15)                 1.0848         calculate D2E/DX2 analytically  !
 ! R12   R(6,16)                 1.0859         calculate D2E/DX2 analytically  !
 ! R13   R(7,8)                  1.3395         calculate D2E/DX2 analytically  !
 ! R14   R(7,12)                 1.3381         calculate D2E/DX2 analytically  !
 ! R15   R(8,9)                  1.3966         calculate D2E/DX2 analytically  !
 ! R16   R(8,18)                 1.5298         calculate D2E/DX2 analytically  !
 ! R17   R(9,10)                 1.3964         calculate D2E/DX2 analytically  !
 ! R18   R(9,19)                 1.0854         calculate D2E/DX2 analytically  !
 ! R19   R(10,11)                1.3946         calculate D2E/DX2 analytically  !
 ! R20   R(10,21)                1.5055         calculate D2E/DX2 analytically  !
 ! R21   R(11,12)                1.3989         calculate D2E/DX2 analytically  !
 ! R22   R(11,22)                1.0852         calculate D2E/DX2 analytically  !
 ! R23   R(12,20)                1.5296         calculate D2E/DX2 analytically  !
 ! R24   R(18,32)                1.5305         calculate D2E/DX2 analytically  !
 ! R25   R(18,33)                1.5369         calculate D2E/DX2 analytically  !
 ! R26   R(18,34)                1.537          calculate D2E/DX2 analytically  !
 ! R27   R(20,29)                1.5308         calculate D2E/DX2 analytically  !
 ! R28   R(20,30)                1.5369         calculate D2E/DX2 analytically  !
 ! R29   R(20,31)                1.5365         calculate D2E/DX2 analytically  !
 ! R30   R(21,26)                1.0944         calculate D2E/DX2 analytically  !
 ! R31   R(21,27)                1.0937         calculate D2E/DX2 analytically  !
 ! R32   R(21,28)                1.0965         calculate D2E/DX2 analytically  !
 ! R33   R(23,24)                1.1919         calculate D2E/DX2 analytically  !
 ! R34   R(23,25)                1.8002         calculate D2E/DX2 analytically  !
 ! R35   R(25,43)                3.1608         calculate D2E/DX2 analytically  !
 ! R36   R(25,46)                3.7326         calculate D2E/DX2 analytically  !
 ! R37   R(25,48)                3.721          calculate D2E/DX2 analytically  !
 ! R38   R(29,50)                1.0963         calculate D2E/DX2 analytically  !
 ! R39   R(29,51)                1.0959         calculate D2E/DX2 analytically  !
 ! R40   R(29,52)                1.0964         calculate D2E/DX2 analytically  !
 ! R41   R(30,47)                1.0968         calculate D2E/DX2 analytically  !
 ! R42   R(30,48)                1.0943         calculate D2E/DX2 analytically  !
 ! R43   R(30,49)                1.0966         calculate D2E/DX2 analytically  !
 ! R44   R(31,44)                1.0968         calculate D2E/DX2 analytically  !
 ! R45   R(31,45)                1.0966         calculate D2E/DX2 analytically  !
 ! R46   R(31,46)                1.0943         calculate D2E/DX2 analytically  !
 ! R47   R(32,38)                1.0964         calculate D2E/DX2 analytically  !
 ! R48   R(32,39)                1.0959         calculate D2E/DX2 analytically  !
 ! R49   R(32,40)                1.0964         calculate D2E/DX2 analytically  !
 ! R50   R(33,35)                1.0968         calculate D2E/DX2 analytically  !
 ! R51   R(33,36)                1.0942         calculate D2E/DX2 analytically  !
 ! R52   R(33,37)                1.0969         calculate D2E/DX2 analytically  !
 ! R53   R(34,41)                1.0971         calculate D2E/DX2 analytically  !
 ! R54   R(34,42)                1.0971         calculate D2E/DX2 analytically  !
 ! R55   R(34,43)                1.0943         calculate D2E/DX2 analytically  !
 ! A1    A(2,1,3)              119.9317         calculate D2E/DX2 analytically  !
 ! A2    A(2,1,13)             120.2351         calculate D2E/DX2 analytically  !
 ! A3    A(3,1,13)             119.8332         calculate D2E/DX2 analytically  !
 ! A4    A(1,2,6)              120.2477         calculate D2E/DX2 analytically  !
 ! A5    A(1,2,14)             119.8783         calculate D2E/DX2 analytically  !
 ! A6    A(6,2,14)             119.874          calculate D2E/DX2 analytically  !
 ! A7    A(1,3,4)              119.7985         calculate D2E/DX2 analytically  !
 ! A8    A(1,3,17)             120.7043         calculate D2E/DX2 analytically  !
 ! A9    A(4,3,17)             119.4966         calculate D2E/DX2 analytically  !
 ! A10   A(3,4,5)              120.2891         calculate D2E/DX2 analytically  !
 ! A11   A(3,4,23)             116.1935         calculate D2E/DX2 analytically  !
 ! A12   A(5,4,23)             123.5173         calculate D2E/DX2 analytically  !
 ! A13   A(4,5,6)              119.5512         calculate D2E/DX2 analytically  !
 ! A14   A(4,5,15)             120.5876         calculate D2E/DX2 analytically  !
 ! A15   A(6,5,15)             119.861          calculate D2E/DX2 analytically  !
 ! A16   A(2,6,5)              120.1811         calculate D2E/DX2 analytically  !
 ! A17   A(2,6,16)             120.2395         calculate D2E/DX2 analytically  !
 ! A18   A(5,6,16)             119.5794         calculate D2E/DX2 analytically  !
 ! A19   A(8,7,12)             120.0626         calculate D2E/DX2 analytically  !
 ! A20   A(7,8,9)              121.4639         calculate D2E/DX2 analytically  !
 ! A21   A(7,8,18)             115.2957         calculate D2E/DX2 analytically  !
 ! A22   A(9,8,18)             123.2398         calculate D2E/DX2 analytically  !
 ! A23   A(8,9,10)             119.5419         calculate D2E/DX2 analytically  !
 ! A24   A(8,9,19)             120.982          calculate D2E/DX2 analytically  !
 ! A25   A(10,9,19)            119.4761         calculate D2E/DX2 analytically  !
 ! A26   A(9,10,11)            117.9533         calculate D2E/DX2 analytically  !
 ! A27   A(9,10,21)            120.8434         calculate D2E/DX2 analytically  !
 ! A28   A(11,10,21)           121.1927         calculate D2E/DX2 analytically  !
 ! A29   A(10,11,12)           119.5455         calculate D2E/DX2 analytically  !
 ! A30   A(10,11,22)           119.4444         calculate D2E/DX2 analytically  !
 ! A31   A(12,11,22)           121.0101         calculate D2E/DX2 analytically  !
 ! A32   A(7,12,11)            121.4311         calculate D2E/DX2 analytically  !
 ! A33   A(7,12,20)            115.347          calculate D2E/DX2 analytically  !
 ! A34   A(11,12,20)           123.2218         calculate D2E/DX2 analytically  !
 ! A35   A(8,18,32)            112.4731         calculate D2E/DX2 analytically  !
 ! A36   A(8,18,33)            108.4158         calculate D2E/DX2 analytically  !
 ! A37   A(8,18,34)            108.7592         calculate D2E/DX2 analytically  !
 ! A38   A(32,18,33)           109.0236         calculate D2E/DX2 analytically  !
 ! A39   A(32,18,34)           108.9938         calculate D2E/DX2 analytically  !
 ! A40   A(33,18,34)           109.125          calculate D2E/DX2 analytically  !
 ! A41   A(12,20,29)           112.4161         calculate D2E/DX2 analytically  !
 ! A42   A(12,20,30)           108.6514         calculate D2E/DX2 analytically  !
 ! A43   A(12,20,31)           108.6341         calculate D2E/DX2 analytically  !
 ! A44   A(29,20,30)           108.8862         calculate D2E/DX2 analytically  !
 ! A45   A(29,20,31)           108.946          calculate D2E/DX2 analytically  !
 ! A46   A(30,20,31)           109.2646         calculate D2E/DX2 analytically  !
 ! A47   A(10,21,26)           111.1866         calculate D2E/DX2 analytically  !
 ! A48   A(10,21,27)           111.267          calculate D2E/DX2 analytically  !
 ! A49   A(10,21,28)           110.3345         calculate D2E/DX2 analytically  !
 ! A50   A(26,21,27)           108.6149         calculate D2E/DX2 analytically  !
 ! A51   A(26,21,28)           107.4876         calculate D2E/DX2 analytically  !
 ! A52   A(27,21,28)           107.8089         calculate D2E/DX2 analytically  !
 ! A53   A(4,23,24)            126.0341         calculate D2E/DX2 analytically  !
 ! A54   A(4,23,25)            115.805          calculate D2E/DX2 analytically  !
 ! A55   A(24,23,25)           118.1581         calculate D2E/DX2 analytically  !
 ! A56   A(23,25,43)           122.9973         calculate D2E/DX2 analytically  !
 ! A57   A(23,25,46)           167.9869         calculate D2E/DX2 analytically  !
 ! A58   A(23,25,48)           148.9509         calculate D2E/DX2 analytically  !
 ! A59   A(43,25,46)            68.4374         calculate D2E/DX2 analytically  !
 ! A60   A(43,25,48)            50.6283         calculate D2E/DX2 analytically  !
 ! A61   A(46,25,48)            39.9569         calculate D2E/DX2 analytically  !
 ! A62   A(20,29,50)           111.8525         calculate D2E/DX2 analytically  !
 ! A63   A(20,29,51)           109.3533         calculate D2E/DX2 analytically  !
 ! A64   A(20,29,52)           111.9088         calculate D2E/DX2 analytically  !
 ! A65   A(50,29,51)           107.5393         calculate D2E/DX2 analytically  !
 ! A66   A(50,29,52)           108.4284         calculate D2E/DX2 analytically  !
 ! A67   A(51,29,52)           107.5743         calculate D2E/DX2 analytically  !
 ! A68   A(20,30,47)           111.0421         calculate D2E/DX2 analytically  !
 ! A69   A(20,30,48)           110.8615         calculate D2E/DX2 analytically  !
 ! A70   A(20,30,49)           110.0253         calculate D2E/DX2 analytically  !
 ! A71   A(47,30,48)           108.2805         calculate D2E/DX2 analytically  !
 ! A72   A(47,30,49)           108.0753         calculate D2E/DX2 analytically  !
 ! A73   A(48,30,49)           108.4657         calculate D2E/DX2 analytically  !
 ! A74   A(20,31,44)           110.9839         calculate D2E/DX2 analytically  !
 ! A75   A(20,31,45)           110.0137         calculate D2E/DX2 analytically  !
 ! A76   A(20,31,46)           110.8978         calculate D2E/DX2 analytically  !
 ! A77   A(44,31,45)           108.1397         calculate D2E/DX2 analytically  !
 ! A78   A(44,31,46)           108.2562         calculate D2E/DX2 analytically  !
 ! A79   A(45,31,46)           108.4608         calculate D2E/DX2 analytically  !
 ! A80   A(18,32,38)           111.8764         calculate D2E/DX2 analytically  !
 ! A81   A(18,32,39)           109.3583         calculate D2E/DX2 analytically  !
 ! A82   A(18,32,40)           111.868          calculate D2E/DX2 analytically  !
 ! A83   A(38,32,39)           107.5343         calculate D2E/DX2 analytically  !
 ! A84   A(38,32,40)           108.3421         calculate D2E/DX2 analytically  !
 ! A85   A(39,32,40)           107.6821         calculate D2E/DX2 analytically  !
 ! A86   A(18,33,35)           111.0669         calculate D2E/DX2 analytically  !
 ! A87   A(18,33,36)           110.7943         calculate D2E/DX2 analytically  !
 ! A88   A(18,33,37)           110.1175         calculate D2E/DX2 analytically  !
 ! A89   A(35,33,36)           108.1843         calculate D2E/DX2 analytically  !
 ! A90   A(35,33,37)           108.1581         calculate D2E/DX2 analytically  !
 ! A91   A(36,33,37)           108.4286         calculate D2E/DX2 analytically  !
 ! A92   A(18,34,41)           111.0775         calculate D2E/DX2 analytically  !
 ! A93   A(18,34,42)           109.9295         calculate D2E/DX2 analytically  !
 ! A94   A(18,34,43)           110.5438         calculate D2E/DX2 analytically  !
 ! A95   A(41,34,42)           108.2737         calculate D2E/DX2 analytically  !
 ! A96   A(41,34,43)           108.2699         calculate D2E/DX2 analytically  !
 ! A97   A(42,34,43)           108.6733         calculate D2E/DX2 analytically  !
 ! A98   A(25,43,34)           135.2802         calculate D2E/DX2 analytically  !
 ! A99   A(25,46,31)           152.5142         calculate D2E/DX2 analytically  !
 ! A100  A(25,48,30)           152.9201         calculate D2E/DX2 analytically  !
 ! D1    D(3,1,2,6)              0.0416         calculate D2E/DX2 analytically  !
 ! D2    D(3,1,2,14)          -179.9339         calculate D2E/DX2 analytically  !
 ! D3    D(13,1,2,6)           179.9662         calculate D2E/DX2 analytically  !
 ! D4    D(13,1,2,14)           -0.0092         calculate D2E/DX2 analytically  !
 ! D5    D(2,1,3,4)              0.2069         calculate D2E/DX2 analytically  !
 ! D6    D(2,1,3,17)           179.9134         calculate D2E/DX2 analytically  !
 ! D7    D(13,1,3,4)          -179.718          calculate D2E/DX2 analytically  !
 ! D8    D(13,1,3,17)           -0.0116         calculate D2E/DX2 analytically  !
 ! D9    D(1,2,6,5)             -0.1958         calculate D2E/DX2 analytically  !
 ! D10   D(1,2,6,16)           179.8129         calculate D2E/DX2 analytically  !
 ! D11   D(14,2,6,5)           179.7796         calculate D2E/DX2 analytically  !
 ! D12   D(14,2,6,16)           -0.2116         calculate D2E/DX2 analytically  !
 ! D13   D(1,3,4,5)             -0.3043         calculate D2E/DX2 analytically  !
 ! D14   D(1,3,4,23)           179.7828         calculate D2E/DX2 analytically  !
 ! D15   D(17,3,4,5)           179.9857         calculate D2E/DX2 analytically  !
 ! D16   D(17,3,4,23)            0.0728         calculate D2E/DX2 analytically  !
 ! D17   D(3,4,5,6)              0.1509         calculate D2E/DX2 analytically  !
 ! D18   D(3,4,5,15)          -179.6955         calculate D2E/DX2 analytically  !
 ! D19   D(23,4,5,6)          -179.9429         calculate D2E/DX2 analytically  !
 ! D20   D(23,4,5,15)            0.2108         calculate D2E/DX2 analytically  !
 ! D21   D(3,4,23,24)            4.2101         calculate D2E/DX2 analytically  !
 ! D22   D(3,4,23,25)         -175.1695         calculate D2E/DX2 analytically  !
 ! D23   D(5,4,23,24)         -175.6996         calculate D2E/DX2 analytically  !
 ! D24   D(5,4,23,25)            4.9207         calculate D2E/DX2 analytically  !
 ! D25   D(4,5,6,2)              0.0986         calculate D2E/DX2 analytically  !
 ! D26   D(4,5,6,16)          -179.9101         calculate D2E/DX2 analytically  !
 ! D27   D(15,5,6,2)           179.9461         calculate D2E/DX2 analytically  !
 ! D28   D(15,5,6,16)           -0.0626         calculate D2E/DX2 analytically  !
 ! D29   D(12,7,8,9)             0.3178         calculate D2E/DX2 analytically  !
 ! D30   D(12,7,8,18)         -179.4196         calculate D2E/DX2 analytically  !
 ! D31   D(8,7,12,11)            0.0058         calculate D2E/DX2 analytically  !
 ! D32   D(8,7,12,20)         -179.8763         calculate D2E/DX2 analytically  !
 ! D33   D(7,8,9,10)            -0.5241         calculate D2E/DX2 analytically  !
 ! D34   D(7,8,9,19)           179.5615         calculate D2E/DX2 analytically  !
 ! D35   D(18,8,9,10)          179.1921         calculate D2E/DX2 analytically  !
 ! D36   D(18,8,9,19)           -0.7223         calculate D2E/DX2 analytically  !
 ! D37   D(7,8,18,32)         -179.4089         calculate D2E/DX2 analytically  !
 ! D38   D(7,8,18,33)           59.9593         calculate D2E/DX2 analytically  !
 ! D39   D(7,8,18,34)          -58.5806         calculate D2E/DX2 analytically  !
 ! D40   D(9,8,18,32)            0.8589         calculate D2E/DX2 analytically  !
 ! D41   D(9,8,18,33)         -119.7729         calculate D2E/DX2 analytically  !
 ! D42   D(9,8,18,34)          121.6872         calculate D2E/DX2 analytically  !
 ! D43   D(8,9,10,11)            0.3956         calculate D2E/DX2 analytically  !
 ! D44   D(8,9,10,21)         -178.4349         calculate D2E/DX2 analytically  !
 ! D45   D(19,9,10,11)        -179.6887         calculate D2E/DX2 analytically  !
 ! D46   D(19,9,10,21)           1.4809         calculate D2E/DX2 analytically  !
 ! D47   D(9,10,11,12)          -0.0878         calculate D2E/DX2 analytically  !
 ! D48   D(9,10,11,22)         179.8509         calculate D2E/DX2 analytically  !
 ! D49   D(21,10,11,12)        178.7383         calculate D2E/DX2 analytically  !
 ! D50   D(21,10,11,22)         -1.323          calculate D2E/DX2 analytically  !
 ! D51   D(9,10,21,26)         -38.5355         calculate D2E/DX2 analytically  !
 ! D52   D(9,10,21,27)        -159.7488         calculate D2E/DX2 analytically  !
 ! D53   D(9,10,21,28)          80.6309         calculate D2E/DX2 analytically  !
 ! D54   D(11,10,21,26)        142.6722         calculate D2E/DX2 analytically  !
 ! D55   D(11,10,21,27)         21.4589         calculate D2E/DX2 analytically  !
 ! D56   D(11,10,21,28)        -98.1614         calculate D2E/DX2 analytically  !
 ! D57   D(10,11,12,7)          -0.1189         calculate D2E/DX2 analytically  !
 ! D58   D(10,11,12,20)        179.7538         calculate D2E/DX2 analytically  !
 ! D59   D(22,11,12,7)         179.9434         calculate D2E/DX2 analytically  !
 ! D60   D(22,11,12,20)         -0.184          calculate D2E/DX2 analytically  !
 ! D61   D(7,12,20,29)         179.7686         calculate D2E/DX2 analytically  !
 ! D62   D(7,12,20,30)          59.1854         calculate D2E/DX2 analytically  !
 ! D63   D(7,12,20,31)         -59.585          calculate D2E/DX2 analytically  !
 ! D64   D(11,12,20,29)         -0.1112         calculate D2E/DX2 analytically  !
 ! D65   D(11,12,20,30)       -120.6944         calculate D2E/DX2 analytically  !
 ! D66   D(11,12,20,31)        120.5353         calculate D2E/DX2 analytically  !
 ! D67   D(8,18,32,38)         -60.9387         calculate D2E/DX2 analytically  !
 ! D68   D(8,18,32,39)        -179.9628         calculate D2E/DX2 analytically  !
 ! D69   D(8,18,32,40)          60.834          calculate D2E/DX2 analytically  !
 ! D70   D(33,18,32,38)         59.3428         calculate D2E/DX2 analytically  !
 ! D71   D(33,18,32,39)        -59.6813         calculate D2E/DX2 analytically  !
 ! D72   D(33,18,32,40)       -178.8845         calculate D2E/DX2 analytically  !
 ! D73   D(34,18,32,38)        178.3678         calculate D2E/DX2 analytically  !
 ! D74   D(34,18,32,39)         59.3436         calculate D2E/DX2 analytically  !
 ! D75   D(34,18,32,40)        -59.8595         calculate D2E/DX2 analytically  !
 ! D76   D(8,18,33,35)          62.5651         calculate D2E/DX2 analytically  !
 ! D77   D(8,18,33,36)         -57.7005         calculate D2E/DX2 analytically  !
 ! D78   D(8,18,33,37)        -177.6491         calculate D2E/DX2 analytically  !
 ! D79   D(32,18,33,35)        -60.1837         calculate D2E/DX2 analytically  !
 ! D80   D(32,18,33,36)        179.5507         calculate D2E/DX2 analytically  !
 ! D81   D(32,18,33,37)         59.6021         calculate D2E/DX2 analytically  !
 ! D82   D(34,18,33,35)       -179.1268         calculate D2E/DX2 analytically  !
 ! D83   D(34,18,33,36)         60.6075         calculate D2E/DX2 analytically  !
 ! D84   D(34,18,33,37)        -59.341          calculate D2E/DX2 analytically  !
 ! D85   D(8,18,34,41)         -63.1186         calculate D2E/DX2 analytically  !
 ! D86   D(8,18,34,42)         177.0672         calculate D2E/DX2 analytically  !
 ! D87   D(8,18,34,43)          57.0952         calculate D2E/DX2 analytically  !
 ! D88   D(32,18,34,41)         59.8271         calculate D2E/DX2 analytically  !
 ! D89   D(32,18,34,42)        -59.9872         calculate D2E/DX2 analytically  !
 ! D90   D(32,18,34,43)       -179.9591         calculate D2E/DX2 analytically  !
 ! D91   D(33,18,34,41)        178.7888         calculate D2E/DX2 analytically  !
 ! D92   D(33,18,34,42)         58.9745         calculate D2E/DX2 analytically  !
 ! D93   D(33,18,34,43)        -60.9974         calculate D2E/DX2 analytically  !
 ! D94   D(12,20,29,50)        -60.9171         calculate D2E/DX2 analytically  !
 ! D95   D(12,20,29,51)       -179.9293         calculate D2E/DX2 analytically  !
 ! D96   D(12,20,29,52)         60.9798         calculate D2E/DX2 analytically  !
 ! D97   D(30,20,29,50)         59.5307         calculate D2E/DX2 analytically  !
 ! D98   D(30,20,29,51)        -59.4814         calculate D2E/DX2 analytically  !
 ! D99   D(30,20,29,52)       -178.5724         calculate D2E/DX2 analytically  !
 ! D100  D(31,20,29,50)        178.6162         calculate D2E/DX2 analytically  !
 ! D101  D(31,20,29,51)         59.604          calculate D2E/DX2 analytically  !
 ! D102  D(31,20,29,52)        -59.4869         calculate D2E/DX2 analytically  !
 ! D103  D(12,20,30,47)         61.8126         calculate D2E/DX2 analytically  !
 ! D104  D(12,20,30,48)        -58.603          calculate D2E/DX2 analytically  !
 ! D105  D(12,20,30,49)       -178.581          calculate D2E/DX2 analytically  !
 ! D106  D(29,20,30,47)        -60.9284         calculate D2E/DX2 analytically  !
 ! D107  D(29,20,30,48)        178.6561         calculate D2E/DX2 analytically  !
 ! D108  D(29,20,30,49)         58.6781         calculate D2E/DX2 analytically  !
 ! D109  D(31,20,30,47)       -179.8146         calculate D2E/DX2 analytically  !
 ! D110  D(31,20,30,48)         59.7698         calculate D2E/DX2 analytically  !
 ! D111  D(31,20,30,49)        -60.2082         calculate D2E/DX2 analytically  !
 ! D112  D(12,20,31,44)        -61.7867         calculate D2E/DX2 analytically  !
 ! D113  D(12,20,31,45)        178.5711         calculate D2E/DX2 analytically  !
 ! D114  D(12,20,31,46)         58.5836         calculate D2E/DX2 analytically  !
 ! D115  D(29,20,31,44)         60.9806         calculate D2E/DX2 analytically  !
 ! D116  D(29,20,31,45)        -58.6617         calculate D2E/DX2 analytically  !
 ! D117  D(29,20,31,46)       -178.6491         calculate D2E/DX2 analytically  !
 ! D118  D(30,20,31,44)        179.8296         calculate D2E/DX2 analytically  !
 ! D119  D(30,20,31,45)         60.1874         calculate D2E/DX2 analytically  !
 ! D120  D(30,20,31,46)        -59.8001         calculate D2E/DX2 analytically  !
 ! D121  D(4,23,25,43)          15.8564         calculate D2E/DX2 analytically  !
 ! D122  D(4,23,25,46)         176.9608         calculate D2E/DX2 analytically  !
 ! D123  D(4,23,25,48)         -51.3226         calculate D2E/DX2 analytically  !
 ! D124  D(24,23,25,43)       -163.5746         calculate D2E/DX2 analytically  !
 ! D125  D(24,23,25,46)         -2.4702         calculate D2E/DX2 analytically  !
 ! D126  D(24,23,25,48)        129.2464         calculate D2E/DX2 analytically  !
 ! D127  D(23,25,43,34)         56.8293         calculate D2E/DX2 analytically  !
 ! D128  D(46,25,43,34)       -119.0146         calculate D2E/DX2 analytically  !
 ! D129  D(48,25,43,34)       -161.1202         calculate D2E/DX2 analytically  !
 ! D130  D(23,25,46,31)        101.9029         calculate D2E/DX2 analytically  !
 ! D131  D(43,25,46,31)        -95.0775         calculate D2E/DX2 analytically  !
 ! D132  D(48,25,46,31)        -41.2642         calculate D2E/DX2 analytically  !
 ! D133  D(23,25,48,30)       -124.0537         calculate D2E/DX2 analytically  !
 ! D134  D(43,25,48,30)        145.783          calculate D2E/DX2 analytically  !
 ! D135  D(46,25,48,30)         41.9466         calculate D2E/DX2 analytically  !
 ! D136  D(20,30,48,25)        -69.0037         calculate D2E/DX2 analytically  !
 ! D137  D(47,30,48,25)        168.9532         calculate D2E/DX2 analytically  !
 ! D138  D(49,30,48,25)         51.9009         calculate D2E/DX2 analytically  !
 ! D139  D(20,31,46,25)         68.2713         calculate D2E/DX2 analytically  !
 ! D140  D(44,31,46,25)       -169.751          calculate D2E/DX2 analytically  !
 ! D141  D(45,31,46,25)        -52.6382         calculate D2E/DX2 analytically  !
 ! D142  D(18,34,43,25)         87.0906         calculate D2E/DX2 analytically  !
 ! D143  D(41,34,43,25)       -151.028          calculate D2E/DX2 analytically  !
 ! D144  D(42,34,43,25)        -33.6329         calculate D2E/DX2 analytically  !
 --------------------------------------------------------------------------------
 Trust Radius=3.00D-01 FncErr=1.00D-07 GrdErr=1.00D-07
 Number of steps in this run=      2 maximum allowed number of steps=      2.
 GradGradGradGradGradGradGradGradGradGradGradGradGradGradGradGradGradGrad

 Leave Link  103 at Tue May  8 16:14:46 2018, MaxMem=  1073741824 cpu:         0.1
 (Enter /ihome/crc/build/g09/g09-D.01/TAR/g09/l202.exe)
 Stoichiometry    C21H28ClNO
 Framework group  C1[X(C21H28ClNO)]
 Deg. of freedom   150
 Full point group                 C1      NOp   1
 RotChk:  IX=1 Diff= 6.20D-16
 Largest Abelian subgroup         C1      NOp   1
 Largest concise Abelian subgroup C1      NOp   1
                         Standard orientation:                         
 ---------------------------------------------------------------------
 Center     Atomic      Atomic             Coordinates (Angstroms)
 Number     Number       Type             X           Y           Z
 ---------------------------------------------------------------------
      1          6           0        6.493720    0.781821    0.680087
      2          6           0        5.767633    1.533870    1.606057
      3          6           0        5.845582   -0.161255   -0.107607
      4          6           0        4.462837   -0.350701    0.027985
      5          6           0        3.735680    0.400740    0.956521
      6          6           0        4.393257    1.341415    1.744193
      7          7           0       -2.184522   -0.029218   -0.092320
      8          6           0       -2.296161    1.290194   -0.294816
      9          6           0       -3.515181    1.952114   -0.132171
     10          6           0       -4.648732    1.226043    0.239202
     11          6           0       -4.508412   -0.146556    0.442025
     12          6           0       -3.256035   -0.745102    0.268075
     13          1           0        7.563714    0.932221    0.572318
     14          1           0        6.275211    2.271933    2.220876
     15          1           0        2.666683    0.254681    1.068894
     16          1           0        3.829312    1.924126    2.466380
     17          1           0        6.397513   -0.751813   -0.832392
     18          6           0       -1.007294    1.998148   -0.716496
     19          1           0       -3.595219    3.022788   -0.291484
     20          6           0       -3.005941   -2.240105    0.473268
     21          6           0       -5.984696    1.903745    0.388651
     22          1           0       -5.373127   -0.733884    0.733565
     23          6           0        3.852759   -1.373287   -0.855081
     24          8           0        4.437617   -2.087869   -1.608777
     25         17           0        2.060046   -1.513619   -0.769629
     26          1           0       -5.877139    2.894801    0.840194
     27          1           0       -6.663699    1.310052    1.007295
     28          1           0       -6.455711    2.037992   -0.592372
     29          6           0       -4.272818   -2.992254    0.888903
     30          6           0       -1.941870   -2.414680    1.568418
     31          6           0       -2.481476   -2.835295   -0.842627
     32          6           0       -1.204606    3.502690   -0.915968
     33          6           0       -0.521679    1.377319   -2.035867
     34          6           0        0.058030    1.772812    0.368217
     35          1           0       -1.253233    1.533720   -2.837976
     36          1           0       -0.363282    0.300549   -1.923371
     37          1           0        0.425726    1.836951   -2.342894
     38          1           0       -1.936966    3.717858   -1.702961
     39          1           0       -0.253699    3.957072   -1.216654
     40          1           0       -1.533276    3.997222    0.005770
     41          1           0       -0.247367    2.223328    1.320805
     42          1           0        1.007264    2.228939    0.060608
     43          1           0        0.219962    0.702886    0.531041
     44          1           0       -3.221811   -2.728278   -1.644706
     45          1           0       -2.270080   -3.903580   -0.713424
     46          1           0       -1.560299   -2.335353   -1.157412
     47          1           0       -2.288374   -2.001647    2.523611
     48          1           0       -1.011977   -1.908082    1.292545
     49          1           0       -1.726491   -3.479735    1.716381
     50          1           0       -4.674995   -2.620567    1.838676
     51          1           0       -4.037237   -4.054151    1.022981
     52          1           0       -5.059052   -2.921077    0.128032
 ---------------------------------------------------------------------
 Rotational constants (GHZ):      0.3430189      0.0976584      0.0846597
 Leave Link  202 at Tue May  8 16:14:46 2018, MaxMem=  1073741824 cpu:         0.0
 (Enter /ihome/crc/build/g09/g09-D.01/TAR/g09/l301.exe)
 Standard basis: 6-311+G(d,p) (5D, 7F)
 Ernie: Thresh=  0.10000D-02 Tol=  0.10000D-05 Strict=F.
 There are   728 symmetry adapted cartesian basis functions of A   symmetry.
 There are   704 symmetry adapted basis functions of A   symmetry.
   704 basis functions,  1105 primitive gaussians,   728 cartesian basis functions
    93 alpha electrons       93 beta electrons
       nuclear repulsion energy      2129.6365145963 Hartrees.
 IExCor= 4336 DFT=T Ex+Corr=M062X ExCW=0 ScaHFX=  0.540000
 ScaDFX=  1.000000  1.000000  1.000000  1.000000 ScalE2=  1.000000  1.000000
 IRadAn=      0 IRanWt=     -1 IRanGd=            0 ICorTp=0 IEmpDi=  4
 NAtoms=   52 NActive=   52 NUniq=   52 SFac= 1.00D+00 NAtFMM=   60 NAOKFM=F Big=F
 Integral buffers will be    131072 words long.
 Raffenetti 2 integral format.
 Two-electron integral symmetry is turned on.
 Force inversion solution in PCM.
 ------------------------------------------------------------------------------
 Polarizable Continuum Model (PCM)
 =================================
 Model                : PCM (using non-symmetric T matrix).
 Atomic radii         : SMD-Coulomb.
 Polarization charges : Total charges.
 Charge compensation  : None.
 Solution method      : Matrix inversion.
 Cavity type          : VdW (van der Waals Surface) (Alpha=1.000).
 Cavity algorithm     : GePol (No added spheres)
                        Default sphere list used, NSphG=   52.
                        Lebedev-Laikov grids with approx.  5.0 points / Ang**2.
                        Smoothing algorithm: Karplus/York (Gamma=1.0000).
                        Polarization charges: spherical gaussians, with
                                              point-specific exponents (IZeta= 3).
                        Self-potential: point-specific (ISelfS= 7).
                        Self-field    : sphere-specific E.n sum rule (ISelfD= 2).
 1st derivatives      : Analytical E(r).r(x)/FMM algorithm (CHGder, D1EAlg=3).
                        Cavity 1st derivative terms included.
 2nd derivatives      : Analytical E(r).r(xy)/FMM algorithm (CHGder, D2EAlg=3).
                        Cavity 2nd derivative terms included.
 Solvent              : Chloroform, Eps=   4.711300 Eps(inf)=   2.090627
 ------------------------------------------------------------------------------
 GePol: Number of generator spheres                  =      52
 GePol: Total number of spheres                      =      52
 GePol: Number of exposed spheres                    =      52 (100.00%)
 GePol: Number of points                             =    3832
 GePol: Average weight of points                     =       0.11
 GePol: Minimum weight of points                     =   0.69D-11
 GePol: Maximum weight of points                     =    0.18790
 GePol: Number of points with low weight             =     196
 GePol: Fraction of low-weight points (<1% of avg)   =       5.11%
 GePol: Cavity surface area                          =    439.862 Ang**2
 GePol: Cavity volume                                =    408.286 Ang**3
 ------------------------------------------------------------------------------
 Atomic radii for non-electrostatic terms: SMD-CDS.
 ------------------------------------------------------------------------------
 PCM non-electrostatic energy =        -0.0128743096 Hartrees.
 Nuclear repulsion after PCM non-electrostatic terms =     2129.6236402867 Hartrees.
 Leave Link  301 at Tue May  8 16:14:46 2018, MaxMem=  1073741824 cpu:         0.4
 (Enter /ihome/crc/build/g09/g09-D.01/TAR/g09/l302.exe)
 NPDir=0 NMtPBC=     1 NCelOv=     1 NCel=       1 NClECP=     1 NCelD=      1
         NCelK=      1 NCelE2=     1 NClLst=     1 CellRange=     0.0.
 One-electron integrals computed using PRISM.
 NBasis=   704 RedAO= T EigKep=  1.03D-06  NBF=   704
 NBsUse=   703 1.00D-06 EigRej=  2.89D-07 NBFU=   703
 Precomputing XC quadrature grid using
 IXCGrd= 4 IRadAn=           0 IRanWt=          -1 IRanGd=           0 AccXCQ= 0.00D+00.
 Generated NRdTot=       0 NPtTot=           0 NUsed=           0 NTot=          32
 NSgBfM=   719   719   719   719   719 MxSgAt=    52 MxSgA2=    52.
 Leave Link  302 at Tue May  8 16:14:47 2018, MaxMem=  1073741824 cpu:         8.1
 (Enter /ihome/crc/build/g09/g09-D.01/TAR/g09/l303.exe)
 DipDrv:  MaxL=1.
 Leave Link  303 at Tue May  8 16:14:47 2018, MaxMem=  1073741824 cpu:         0.6
 (Enter /ihome/crc/build/g09/g09-D.01/TAR/g09/l401.exe)
 ExpMin= 4.38D-02 ExpMax= 1.06D+05 ExpMxC= 3.62D+03 IAcc=2 IRadAn=         4 AccDes= 0.00D+00
 Harris functional with IExCor= 1009 and IRadAn=       4 diagonalized for initial guess.
 HarFok:  IExCor= 1009 AccDes= 0.00D+00 IRadAn=         4 IDoV= 1 UseB2=F ITyADJ=14
 ICtDFT=  3500011 ScaDFX=  1.000000  1.000000  1.000000  1.000000
 FoFCou: FMM=F IPFlag=           0 FMFlag=      100000 FMFlg1=           0
         NFxFlg=           0 DoJE=T BraDBF=F KetDBF=T FulRan=T
         wScrn=  0.000000 ICntrl=     500 IOpCl=  0 I1Cent=   200000004 NGrid=           0
         NMat0=    1 NMatS0=      1 NMatT0=    0 NMatD0=    1 NMtDS0=    0 NMtDT0=    0
 Petite list used in FoFCou.
 Harris En= -1406.58727578194    
 JPrj=0 DoOrth=F DoCkMO=F.
 Leave Link  401 at Tue May  8 16:14:51 2018, MaxMem=  1073741824 cpu:        30.0
 (Enter /ihome/crc/build/g09/g09-D.01/TAR/g09/l502.exe)
 Closed shell SCF:
 Using DIIS extrapolation, IDIIS=  1040.
 Integral symmetry usage will be decided dynamically.
 IVT=     1619765 IEndB=     1619765 NGot=  1073741824 MDV=  1072669412
 LenX=  1072669412 LenY=  1072138700
 Requested convergence on RMS density matrix=1.00D-08 within 128 cycles.
 Requested convergence on MAX density matrix=1.00D-06.
 Requested convergence on             energy=1.00D-06.
 No special actions if energy rises.
 Fock matrices will be formed incrementally for  20 cycles.

 Cycle   1  Pass 1  IDiag  1:
 FoFJK:  IHMeth= 1 ICntrl=       0 DoSepK=F KAlg= 0 I1Cent=   0 FoldK=F
 IRaf= 710000000 NMat=   1 IRICut=       1 DoRegI=T DoRafI=F ISym2E= 0.
 FoFCou: FMM=F IPFlag=           0 FMFlag=      100000 FMFlg1=           0
         NFxFlg=           0 DoJE=F BraDBF=F KetDBF=F FulRan=T
         wScrn=  0.000000 ICntrl=       0 IOpCl=  0 I1Cent=           0 NGrid=           0
         NMat0=    1 NMatS0=      1 NMatT0=    0 NMatD0=    1 NMtDS0=    0 NMtDT0=    0
 Symmetry not used in FoFCou.
 Inv3:  Mode=1 IEnd=    44052672.
 Iteration    1 A*A^-1 deviation from unit magnitude is 1.03D-14 for   3176.
 Iteration    1 A*A^-1 deviation from orthogonality  is 7.94D-15 for   2127   1705.
 Iteration    1 A^-1*A deviation from unit magnitude is 1.25D-14 for   3176.
 Iteration    1 A^-1*A deviation from orthogonality  is 1.94D-14 for   3027   3000.
 E= -1406.37729977652    
 DIIS: error= 3.39D-02 at cycle   1 NSaved=   1.
 NSaved= 1 IEnMin= 1 EnMin= -1406.37729977652     IErMin= 1 ErrMin= 3.39D-02
 ErrMax= 3.39D-02  0.00D+00 EMaxC= 1.00D-01 BMatC= 9.37D-01 BMatP= 9.37D-01
 IDIUse=3 WtCom= 6.61D-01 WtEn= 3.39D-01
 Coeff-Com:  0.100D+01
 Coeff-En:   0.100D+01
 Coeff:      0.100D+01
 Gap=     0.491 Goal=   None    Shift=    0.000
 GapD=    0.491 DampG=2.000 DampE=0.500 DampFc=1.0000 IDamp=-1.
 RMSDP=1.83D-02 MaxDP=3.30D+00              OVMax= 2.51D-01

 Cycle   2  Pass 1  IDiag  1:
 RMSU=  1.34D-02    CP:  7.62D-01
 E= -1406.51416709664     Delta-E=       -0.136867320116 Rises=F Damp=F
 DIIS: error= 5.07D-02 at cycle   2 NSaved=   2.
 NSaved= 2 IEnMin= 2 EnMin= -1406.51416709664     IErMin= 1 ErrMin= 3.39D-02
 ErrMax= 5.07D-02  0.00D+00 EMaxC= 1.00D-01 BMatC= 7.04D-01 BMatP= 9.37D-01
 IDIUse=3 WtCom= 4.93D-01 WtEn= 5.07D-01
 Coeff-Com:  0.461D+00 0.539D+00
 Coeff-En:   0.446D+00 0.554D+00
 Coeff:      0.453D+00 0.547D+00
 Gap=     0.251 Goal=   None    Shift=    0.000
 RMSDP=9.72D-03 MaxDP=1.19D+00 DE=-1.37D-01 OVMax= 2.01D-01

 Cycle   3  Pass 1  IDiag  1:
 RMSU=  5.45D-03    CP:  8.25D-01  4.50D-01
 E= -1407.11145142779     Delta-E=       -0.597284331153 Rises=F Damp=F
 DIIS: error= 2.12D-02 at cycle   3 NSaved=   3.
 NSaved= 3 IEnMin= 3 EnMin= -1407.11145142779     IErMin= 3 ErrMin= 2.12D-02
 ErrMax= 2.12D-02  0.00D+00 EMaxC= 1.00D-01 BMatC= 6.17D-02 BMatP= 7.04D-01
 IDIUse=3 WtCom= 7.88D-01 WtEn= 2.12D-01
 Coeff-Com:  0.153D+00 0.271D+00 0.576D+00
 Coeff-En:   0.000D+00 0.000D+00 0.100D+01
 Coeff:      0.120D+00 0.214D+00 0.666D+00
 Gap=     0.249 Goal=   None    Shift=    0.000
 RMSDP=2.65D-03 MaxDP=3.06D-01 DE=-5.97D-01 OVMax= 6.29D-02

 Cycle   4  Pass 1  IDiag  1:
 RMSU=  2.06D-03    CP:  8.12D-01  5.27D-01  7.95D-01
 E= -1407.14109191794     Delta-E=       -0.029640490150 Rises=F Damp=F
 DIIS: error= 1.19D-02 at cycle   4 NSaved=   4.
 NSaved= 4 IEnMin= 4 EnMin= -1407.14109191794     IErMin= 4 ErrMin= 1.19D-02
 ErrMax= 1.19D-02  0.00D+00 EMaxC= 1.00D-01 BMatC= 2.05D-02 BMatP= 6.17D-02
 IDIUse=3 WtCom= 8.81D-01 WtEn= 1.19D-01
 Coeff-Com:  0.275D-02 0.373D-01 0.392D+00 0.568D+00
 Coeff-En:   0.000D+00 0.000D+00 0.268D+00 0.732D+00
 Coeff:      0.242D-02 0.329D-01 0.377D+00 0.587D+00
 Gap=     0.248 Goal=   None    Shift=    0.000
 RMSDP=1.37D-03 MaxDP=1.75D-01 DE=-2.96D-02 OVMax= 3.50D-02

 Cycle   5  Pass 1  IDiag  1:
 RMSU=  4.77D-04    CP:  7.97D-01  5.03D-01  9.09D-01  6.53D-01
 E= -1407.15545739116     Delta-E=       -0.014365473217 Rises=F Damp=F
 DIIS: error= 9.42D-04 at cycle   5 NSaved=   5.
 NSaved= 5 IEnMin= 5 EnMin= -1407.15545739116     IErMin= 5 ErrMin= 9.42D-04
 ErrMax= 9.42D-04  0.00D+00 EMaxC= 1.00D-01 BMatC= 2.69D-04 BMatP= 2.05D-02
 IDIUse=3 WtCom= 9.91D-01 WtEn= 9.42D-03
 Coeff-Com: -0.382D-02 0.647D-03 0.908D-01 0.205D+00 0.708D+00
 Coeff-En:   0.000D+00 0.000D+00 0.000D+00 0.000D+00 0.100D+01
 Coeff:     -0.378D-02 0.641D-03 0.899D-01 0.203D+00 0.710D+00
 Gap=     0.247 Goal=   None    Shift=    0.000
 RMSDP=2.19D-04 MaxDP=2.18D-02 DE=-1.44D-02 OVMax= 3.42D-03

 Cycle   6  Pass 1  IDiag  1:
 RMSU=  1.61D-04    CP:  7.98D-01  4.99D-01  9.14D-01  7.08D-01  9.06D-01
 E= -1407.15568852080     Delta-E=       -0.000231129645 Rises=F Damp=F
 DIIS: error= 2.13D-04 at cycle   6 NSaved=   6.
 NSaved= 6 IEnMin= 6 EnMin= -1407.15568852080     IErMin= 6 ErrMin= 2.13D-04
 ErrMax= 2.13D-04  0.00D+00 EMaxC= 1.00D-01 BMatC= 1.93D-05 BMatP= 2.69D-04
 IDIUse=3 WtCom= 9.98D-01 WtEn= 2.13D-03
 Coeff-Com: -0.144D-02-0.326D-02-0.175D-02 0.231D-01 0.272D+00 0.711D+00
 Coeff-En:   0.000D+00 0.000D+00 0.000D+00 0.000D+00 0.000D+00 0.100D+01
 Coeff:     -0.144D-02-0.325D-02-0.175D-02 0.230D-01 0.271D+00 0.712D+00
 Gap=     0.248 Goal=   None    Shift=    0.000
 RMSDP=7.33D-05 MaxDP=8.53D-03 DE=-2.31D-04 OVMax= 1.07D-03

 Cycle   7  Pass 1  IDiag  1:
 RMSU=  5.40D-05    CP:  7.98D-01  4.99D-01  9.17D-01  7.04D-01  9.48D-01
                    CP:  8.38D-01
 E= -1407.15571032205     Delta-E=       -0.000021801246 Rises=F Damp=F
 DIIS: error= 6.19D-05 at cycle   7 NSaved=   7.
 NSaved= 7 IEnMin= 7 EnMin= -1407.15571032205     IErMin= 7 ErrMin= 6.19D-05
 ErrMax= 6.19D-05  0.00D+00 EMaxC= 1.00D-01 BMatC= 1.40D-06 BMatP= 1.93D-05
 IDIUse=1 WtCom= 1.00D+00 WtEn= 0.00D+00
 Coeff-Com: -0.659D-04-0.104D-02-0.740D-02-0.120D-01 0.162D-01 0.183D+00
 Coeff-Com:  0.821D+00
 Coeff:     -0.659D-04-0.104D-02-0.740D-02-0.120D-01 0.162D-01 0.183D+00
 Coeff:      0.821D+00
 Gap=     0.248 Goal=   None    Shift=    0.000
 RMSDP=2.71D-05 MaxDP=3.26D-03 DE=-2.18D-05 OVMax= 5.94D-04

 Cycle   8  Pass 1  IDiag  1:
 RMSU=  1.70D-05    CP:  7.98D-01  4.99D-01  9.18D-01  7.04D-01  9.69D-01
                    CP:  8.99D-01  1.10D+00
 E= -1407.15571244850     Delta-E=       -0.000002126447 Rises=F Damp=F
 DIIS: error= 4.39D-05 at cycle   8 NSaved=   8.
 NSaved= 8 IEnMin= 8 EnMin= -1407.15571244850     IErMin= 8 ErrMin= 4.39D-05
 ErrMax= 4.39D-05  0.00D+00 EMaxC= 1.00D-01 BMatC= 3.39D-07 BMatP= 1.40D-06
 IDIUse=1 WtCom= 1.00D+00 WtEn= 0.00D+00
 Coeff-Com:  0.113D-03-0.115D-03-0.284D-02-0.873D-02-0.269D-01-0.213D-01
 Coeff-Com:  0.318D+00 0.741D+00
 Coeff:      0.113D-03-0.115D-03-0.284D-02-0.873D-02-0.269D-01-0.213D-01
 Coeff:      0.318D+00 0.741D+00
 Gap=     0.248 Goal=   None    Shift=    0.000
 RMSDP=1.16D-05 MaxDP=1.29D-03 DE=-2.13D-06 OVMax= 2.48D-04

 Cycle   9  Pass 1  IDiag  1:
 RMSU=  6.11D-06    CP:  7.98D-01  4.98D-01  9.19D-01  7.02D-01  9.75D-01
                    CP:  9.24D-01  1.15D+00  1.18D+00
 E= -1407.15571294589     Delta-E=       -0.000000497399 Rises=F Damp=F
 DIIS: error= 1.03D-05 at cycle   9 NSaved=   9.
 NSaved= 9 IEnMin= 9 EnMin= -1407.15571294589     IErMin= 9 ErrMin= 1.03D-05
 ErrMax= 1.03D-05  0.00D+00 EMaxC= 1.00D-01 BMatC= 4.54D-08 BMatP= 3.39D-07
 IDIUse=1 WtCom= 1.00D+00 WtEn= 0.00D+00
 Coeff-Com:  0.448D-04 0.119D-03 0.249D-03-0.137D-02-0.120D-01-0.387D-01
 Coeff-Com: -0.291D-01 0.280D+00 0.801D+00
 Coeff:      0.448D-04 0.119D-03 0.249D-03-0.137D-02-0.120D-01-0.387D-01
 Coeff:     -0.291D-01 0.280D+00 0.801D+00
 Gap=     0.248 Goal=   None    Shift=    0.000
 RMSDP=5.73D-06 MaxDP=1.01D-03 DE=-4.97D-07 OVMax= 1.34D-04

 Cycle  10  Pass 1  IDiag  1:
 RMSU=  3.84D-06    CP:  7.98D-01  4.98D-01  9.19D-01  7.01D-01  9.78D-01
                    CP:  9.25D-01  1.18D+00  1.30D+00  9.18D-01
 E= -1407.15571301315     Delta-E=       -0.000000067252 Rises=F Damp=F
 DIIS: error= 2.44D-06 at cycle  10 NSaved=  10.
 NSaved=10 IEnMin=10 EnMin= -1407.15571301315     IErMin=10 ErrMin= 2.44D-06
 ErrMax= 2.44D-06  0.00D+00 EMaxC= 1.00D-01 BMatC= 4.83D-09 BMatP= 4.54D-08
 IDIUse=1 WtCom= 1.00D+00 WtEn= 0.00D+00
 Coeff-Com:  0.671D-05 0.588D-04 0.384D-03 0.293D-03-0.206D-02-0.127D-01
 Coeff-Com: -0.432D-01 0.399D-01 0.324D+00 0.693D+00
 Coeff:      0.671D-05 0.588D-04 0.384D-03 0.293D-03-0.206D-02-0.127D-01
 Coeff:     -0.432D-01 0.399D-01 0.324D+00 0.693D+00
 Gap=     0.248 Goal=   None    Shift=    0.000
 RMSDP=1.41D-06 MaxDP=1.34D-04 DE=-6.73D-08 OVMax= 2.30D-05

 Cycle  11  Pass 1  IDiag  1:
 RMSU=  7.43D-07    CP:  7.98D-01  4.98D-01  9.19D-01  7.01D-01  9.78D-01
                    CP:  9.27D-01  1.18D+00  1.32D+00  1.03D+00  9.57D-01
 E= -1407.15571301847     Delta-E=       -0.000000005320 Rises=F Damp=F
 DIIS: error= 1.00D-06 at cycle  11 NSaved=  11.
 NSaved=11 IEnMin=11 EnMin= -1407.15571301847     IErMin=11 ErrMin= 1.00D-06
 ErrMax= 1.00D-06  0.00D+00 EMaxC= 1.00D-01 BMatC= 4.90D-10 BMatP= 4.83D-09
 IDIUse=1 WtCom= 1.00D+00 WtEn= 0.00D+00
 Coeff-Com: -0.201D-05 0.944D-05 0.118D-03 0.243D-03 0.453D-03-0.369D-03
 Coeff-Com: -0.123D-01-0.142D-01 0.338D-01 0.266D+00 0.726D+00
 Coeff:     -0.201D-05 0.944D-05 0.118D-03 0.243D-03 0.453D-03-0.369D-03
 Coeff:     -0.123D-01-0.142D-01 0.338D-01 0.266D+00 0.726D+00
 Gap=     0.248 Goal=   None    Shift=    0.000
 RMSDP=4.12D-07 MaxDP=4.67D-05 DE=-5.32D-09 OVMax= 7.73D-06

 Cycle  12  Pass 1  IDiag  1:
 RMSU=  2.37D-07    CP:  7.98D-01  4.98D-01  9.19D-01  7.00D-01  9.78D-01
                    CP:  9.27D-01  1.18D+00  1.33D+00  1.04D+00  1.00D+00
                    CP:  1.06D+00
 E= -1407.15571301893     Delta-E=       -0.000000000460 Rises=F Damp=F
 DIIS: error= 5.15D-07 at cycle  12 NSaved=  12.
 NSaved=12 IEnMin=12 EnMin= -1407.15571301893     IErMin=12 ErrMin= 5.15D-07
 ErrMax= 5.15D-07  0.00D+00 EMaxC= 1.00D-01 BMatC= 9.02D-11 BMatP= 4.90D-10
 IDIUse=1 WtCom= 1.00D+00 WtEn= 0.00D+00
 Coeff-Com: -0.128D-05-0.157D-05 0.147D-04 0.738D-04 0.412D-03 0.121D-02
 Coeff-Com: -0.122D-02-0.104D-01-0.200D-01 0.500D-01 0.343D+00 0.637D+00
 Coeff:     -0.128D-05-0.157D-05 0.147D-04 0.738D-04 0.412D-03 0.121D-02
 Coeff:     -0.122D-02-0.104D-01-0.200D-01 0.500D-01 0.343D+00 0.637D+00
 Gap=     0.248 Goal=   None    Shift=    0.000
 RMSDP=1.86D-07 MaxDP=3.54D-05 DE=-4.60D-10 OVMax= 3.14D-06

 Cycle  13  Pass 1  IDiag  1:
 RMSU=  1.03D-07    CP:  7.98D-01  4.98D-01  9.19D-01  7.00D-01  9.78D-01
                    CP:  9.27D-01  1.18D+00  1.33D+00  1.04D+00  1.02D+00
                    CP:  1.09D+00  7.98D-01
 E= -1407.15571301893     Delta-E=        0.000000000000 Rises=F Damp=F
 DIIS: error= 1.78D-07 at cycle  13 NSaved=  13.
 NSaved=13 IEnMin=12 EnMin= -1407.15571301893     IErMin=13 ErrMin= 1.78D-07
 ErrMax= 1.78D-07  0.00D+00 EMaxC= 1.00D-01 BMatC= 8.03D-12 BMatP= 9.02D-11
 IDIUse=1 WtCom= 1.00D+00 WtEn= 0.00D+00
 Coeff-Com: -0.172D-06-0.186D-05-0.987D-05-0.113D-04 0.805D-04 0.461D-03
 Coeff-Com:  0.122D-02-0.987D-03-0.127D-01-0.241D-01 0.200D-02 0.217D+00
 Coeff-Com:  0.817D+00
 Coeff:     -0.172D-06-0.186D-05-0.987D-05-0.113D-04 0.805D-04 0.461D-03
 Coeff:      0.122D-02-0.987D-03-0.127D-01-0.241D-01 0.200D-02 0.217D+00
 Coeff:      0.817D+00
 Gap=     0.248 Goal=   None    Shift=    0.000
 RMSDP=7.14D-08 MaxDP=8.29D-06 DE= 4.55D-13 OVMax= 2.10D-06

 Cycle  14  Pass 1  IDiag  1:
 RMSU=  3.49D-08    CP:  7.98D-01  4.98D-01  9.19D-01  7.00D-01  9.78D-01
                    CP:  9.27D-01  1.18D+00  1.33D+00  1.04D+00  1.03D+00
                    CP:  1.11D+00  8.60D-01  1.12D+00
 E= -1407.15571301900     Delta-E=       -0.000000000072 Rises=F Damp=F
 DIIS: error= 5.24D-08 at cycle  14 NSaved=  14.
 NSaved=14 IEnMin=14 EnMin= -1407.15571301900     IErMin=14 ErrMin= 5.24D-08
 ErrMax= 5.24D-08  0.00D+00 EMaxC= 1.00D-01 BMatC= 6.67D-13 BMatP= 8.03D-12
 IDIUse=1 WtCom= 1.00D+00 WtEn= 0.00D+00
 Coeff-Com:  0.412D-07-0.309D-06-0.268D-05-0.723D-05-0.558D-05 0.215D-04
 Coeff-Com:  0.330D-03 0.683D-03-0.208D-02-0.105D-01-0.284D-01 0.689D-02
 Coeff-Com:  0.246D+00 0.787D+00
 Coeff:      0.412D-07-0.309D-06-0.268D-05-0.723D-05-0.558D-05 0.215D-04
 Coeff:      0.330D-03 0.683D-03-0.208D-02-0.105D-01-0.284D-01 0.689D-02
 Coeff:      0.246D+00 0.787D+00
 Gap=     0.248 Goal=   None    Shift=    0.000
 RMSDP=1.35D-08 MaxDP=1.84D-06 DE=-7.23D-11 OVMax= 5.90D-07

 Cycle  15  Pass 1  IDiag  1:
 RMSU=  8.31D-09    CP:  7.98D-01  4.98D-01  9.19D-01  7.00D-01  9.78D-01
                    CP:  9.27D-01  1.18D+00  1.33D+00  1.04D+00  1.03D+00
                    CP:  1.11D+00  8.61D-01  1.20D+00  1.05D+00
 E= -1407.15571301897     Delta-E=        0.000000000032 Rises=F Damp=F
 DIIS: error= 2.90D-08 at cycle  15 NSaved=  15.
 NSaved=15 IEnMin=14 EnMin= -1407.15571301900     IErMin=15 ErrMin= 2.90D-08
 ErrMax= 2.90D-08  0.00D+00 EMaxC= 1.00D-01 BMatC= 9.75D-14 BMatP= 6.67D-13
 IDIUse=1 WtCom= 1.00D+00 WtEn= 0.00D+00
 Coeff-Com:  0.276D-07 0.138D-06 0.314D-06-0.781D-06-0.120D-04-0.560D-04
 Coeff-Com: -0.761D-04 0.380D-03 0.110D-02 0.483D-03-0.925D-02-0.309D-01
 Coeff-Com: -0.371D-01 0.261D+00 0.815D+00
 Coeff:      0.276D-07 0.138D-06 0.314D-06-0.781D-06-0.120D-04-0.560D-04
 Coeff:     -0.761D-04 0.380D-03 0.110D-02 0.483D-03-0.925D-02-0.309D-01
 Coeff:     -0.371D-01 0.261D+00 0.815D+00
 Gap=     0.248 Goal=   None    Shift=    0.000
 RMSDP=5.32D-09 MaxDP=8.60D-07 DE= 3.18D-11 OVMax= 3.30D-07

 Error on total polarization charges =  0.05638
 SCF Done:  E(RM062X) =  -1407.15571302     A.U. after   15 cycles
            NFock= 15  Conv=0.53D-08     -V/T= 2.0037
 KE= 1.401907633949D+03 PE=-7.552390546844D+03 EE= 2.613703559589D+03
 SMD-CDS (non-electrostatic) energy       (kcal/mol) =      -8.08
 (included in total energy above)
 Leave Link  502 at Tue May  8 16:24:48 2018, MaxMem=  1073741824 cpu:      4760.3
 (Enter /ihome/crc/build/g09/g09-D.01/TAR/g09/l801.exe)
 DoSCS=F DFT=T ScalE2(SS,OS)=  1.000000  1.000000
 Range of M.O.s used for correlation:     1   703
 NBasis=   704 NAE=    93 NBE=    93 NFC=     0 NFV=     0
 NROrb=    703 NOA=    93 NOB=    93 NVA=   610 NVB=   610

 **** Warning!!: The largest alpha MO coefficient is  0.17082713D+03

 Leave Link  801 at Tue May  8 16:24:48 2018, MaxMem=  1073741824 cpu:         0.2
 (Enter /ihome/crc/build/g09/g09-D.01/TAR/g09/l1101.exe)
 Using compressed storage, NAtomX=    52.
 Will process     53 centers per pass.
 Leave Link 1101 at Tue May  8 16:24:49 2018, MaxMem=  1073741824 cpu:        12.1
 (Enter /ihome/crc/build/g09/g09-D.01/TAR/g09/l1102.exe)
 Symmetrizing basis deriv contribution to polar:
 IMax=3 JMax=2 DiffMx= 0.00D+00
 Leave Link 1102 at Tue May  8 16:24:49 2018, MaxMem=  1073741824 cpu:         0.6
 (Enter /ihome/crc/build/g09/g09-D.01/TAR/g09/l1110.exe)
 Forming Gx(P) for the SCF density, NAtomX=    52.
 Integral derivatives from FoFJK, PRISM(SPDF).
 Do as many integral derivatives as possible in FoFJK.
 G2DrvN: MDV=    1073741304.
 G2DrvN: will do    53 centers at a time, making    1 passes.
 Calling FoFCou, ICntrl=  3107 FMM=F I1Cent=   0 AccDes= 0.00D+00.
 FoFJK:  IHMeth= 1 ICntrl=    3107 DoSepK=F KAlg= 0 I1Cent=   0 FoldK=F
 IRaf=         0 NMat=   1 IRICut=       1 DoRegI=T DoRafI=F ISym2E= 0.
 FoFCou: FMM=F IPFlag=           0 FMFlag=      100000 FMFlg1=           0
         NFxFlg=           0 DoJE=F BraDBF=F KetDBF=F FulRan=T
         wScrn=  0.000000 ICntrl=    3107 IOpCl=  0 I1Cent=           0 NGrid=           0
         NMat0=    1 NMatS0=      1 NMatT0=    0 NMatD0=    1 NMtDS0=    0 NMtDT0=    0
 Symmetry not used in FoFCou.
 NEqPCM:  Using equilibrium solvation (IEInf=0, Eps=   4.7113, EpsInf=   2.0906)
 G2PCM: DoFxE=T DoFxN=T DoGrad=T DoDP/DQ/DG/TGxP=FFFF NFrqRd=   0 IEInf=0 SqF1=F DoCFld=F IF1Alg=4.
 GePol: Maximum number of non-zero 1st derivatives   =     370
 End of G2Drv F.D. properties file   721 does not exist.
 End of G2Drv F.D. properties file   722 does not exist.
 End of G2Drv F.D. properties file   788 does not exist.
 Leave Link 1110 at Tue May  8 16:44:31 2018, MaxMem=  1073741824 cpu:      9449.2
 (Enter /ihome/crc/build/g09/g09-D.01/TAR/g09/l1002.exe)
 Minotr:  Closed shell wavefunction.
          IDoAtm=11111111111111111111111111111111111111111111111111
          IDoAtm=11
 NEqPCM:  Using equilibrium solvation (IEInf=0, Eps=   4.7113, EpsInf=   2.0906)
          Direct CPHF calculation.
          Differentiating once with respect to electric field.
                with respect to dipole field.
          Differentiating once with respect to nuclear coordinates.
          Requested convergence is 1.0D-08 RMS, and 1.0D-07 maximum.
          Secondary convergence is 1.0D-12 RMS, and 1.0D-12 maximum.
          NewPWx=T KeepS1=F KeepF1=F KeepIn=T MapXYZ=F SortEE=F KeepMc=T.
          MDV=    1073740597 using IRadAn=       2.
 Generate precomputed XC quadrature information.
          Solving linear equations simultaneously, MaxMat=       0.
 FoFJK:  IHMeth= 1 ICntrl=       0 DoSepK=F KAlg= 0 I1Cent=   0 FoldK=F
 IRaf= 710000000 NMat= 159 IRICut=     397 DoRegI=T DoRafI=T ISym2E= 2.
 FoFCou: FMM=F IPFlag=           0 FMFlag=      100000 FMFlg1=           0
         NFxFlg=           0 DoJE=F BraDBF=F KetDBF=F FulRan=T
         wScrn=  0.000000 ICntrl=       0 IOpCl=  0 I1Cent=           0 NGrid=           0
         NMat0=  159 NMatS0=    159 NMatT0=    0 NMatD0=  159 NMtDS0=    0 NMtDT0=    0
 Integrals replicated using symmetry in FoFCou.
          There are   159 degrees of freedom in the 1st order CPHF.  IDoFFX=6 NUNeed=     3.
    157 vectors produced by pass  0 Test12= 5.67D-14 1.00D-09 XBig12= 1.87D+02 4.52D+00.
 AX will form   157 AO Fock derivatives at one time.
    156 vectors produced by pass  1 Test12= 5.67D-14 1.00D-09 XBig12= 2.07D+01 5.08D-01.
    156 vectors produced by pass  2 Test12= 5.67D-14 1.00D-09 XBig12= 3.65D-01 6.63D-02.
    156 vectors produced by pass  3 Test12= 5.67D-14 1.00D-09 XBig12= 2.71D-03 5.64D-03.
    156 vectors produced by pass  4 Test12= 5.67D-14 1.00D-09 XBig12= 1.77D-05 3.32D-04.
    156 vectors produced by pass  5 Test12= 5.67D-14 1.00D-09 XBig12= 9.70D-08 1.97D-05.
     96 vectors produced by pass  6 Test12= 5.67D-14 1.00D-09 XBig12= 4.40D-10 1.20D-06.
     46 vectors produced by pass  7 Test12= 5.67D-14 1.00D-09 XBig12= 8.34D-12 1.90D-07.
     46 vectors produced by pass  8 Test12= 5.67D-14 1.00D-09 XBig12= 1.47D-12 8.77D-08.
     46 vectors produced by pass  9 Test12= 5.67D-14 1.00D-09 XBig12= 1.36D-13 1.90D-08.
     46 vectors produced by pass 10 Test12= 5.67D-14 1.00D-09 XBig12= 1.61D-14 9.24D-09.
     45 vectors produced by pass 11 Test12= 5.67D-14 1.00D-09 XBig12= 1.20D-15 2.19D-09.
     45 vectors produced by pass 12 Test12= 5.67D-14 1.00D-09 XBig12= 5.14D-14 1.19D-08.
     45 vectors produced by pass 13 Test12= 5.67D-14 1.00D-09 XBig12= 1.49D-14 7.21D-09.
     44 vectors produced by pass 14 Test12= 5.67D-14 1.00D-09 XBig12= 1.25D-14 6.53D-09.
     44 vectors produced by pass 15 Test12= 5.67D-14 1.00D-09 XBig12= 2.35D-14 7.48D-09.
     44 vectors produced by pass 16 Test12= 5.67D-14 1.00D-09 XBig12= 2.90D-14 7.62D-09.
     44 vectors produced by pass 17 Test12= 5.67D-14 1.00D-09 XBig12= 1.98D-14 7.97D-09.
     44 vectors produced by pass 18 Test12= 5.67D-14 1.00D-09 XBig12= 2.42D-14 6.71D-09.
     28 vectors produced by pass 19 Test12= 5.67D-14 1.00D-09 XBig12= 6.92D-15 4.05D-09.
     28 vectors produced by pass 20 Test12= 5.67D-14 1.00D-09 XBig12= 2.65D-14 8.63D-09.
     28 vectors produced by pass 21 Test12= 5.67D-14 1.00D-09 XBig12= 8.71D-15 4.76D-09.
     28 vectors produced by pass 22 Test12= 5.67D-14 1.00D-09 XBig12= 2.64D-14 7.59D-09.
     28 vectors produced by pass 23 Test12= 5.67D-14 1.00D-09 XBig12= 2.08D-14 6.36D-09.
     28 vectors produced by pass 24 Test12= 5.67D-14 1.00D-09 XBig12= 2.10D-14 6.76D-09.
     28 vectors produced by pass 25 Test12= 5.67D-14 1.00D-09 XBig12= 2.47D-14 6.85D-09.
     28 vectors produced by pass 26 Test12= 5.67D-14 1.00D-09 XBig12= 3.41D-14 9.45D-09.
     22 vectors produced by pass 27 Test12= 5.67D-14 1.00D-09 XBig12= 9.87D-15 4.02D-09.
     22 vectors produced by pass 28 Test12= 5.67D-14 1.00D-09 XBig12= 2.38D-14 7.14D-09.
     22 vectors produced by pass 29 Test12= 5.67D-14 1.00D-09 XBig12= 1.85D-14 5.93D-09.
     22 vectors produced by pass 30 Test12= 5.67D-14 1.00D-09 XBig12= 1.90D-14 5.62D-09.
     22 vectors produced by pass 31 Test12= 5.67D-14 1.00D-09 XBig12= 1.68D-14 6.55D-09.
     22 vectors produced by pass 32 Test12= 5.67D-14 1.00D-09 XBig12= 1.44D-14 5.17D-09.
     22 vectors produced by pass 33 Test12= 5.67D-14 1.00D-09 XBig12= 1.21D-14 4.56D-09.
     22 vectors produced by pass 34 Test12= 5.67D-14 1.00D-09 XBig12= 8.97D-15 3.91D-09.
     22 vectors produced by pass 35 Test12= 5.67D-14 1.00D-09 XBig12= 1.23D-14 4.55D-09.
     22 vectors produced by pass 36 Test12= 5.67D-14 1.00D-09 XBig12= 1.62D-14 6.12D-09.
     21 vectors produced by pass 37 Test12= 5.67D-14 1.00D-09 XBig12= 1.03D-14 4.21D-09.
     21 vectors produced by pass 38 Test12= 5.67D-14 1.00D-09 XBig12= 1.38D-14 5.15D-09.
     15 vectors produced by pass 39 Test12= 5.67D-14 1.00D-09 XBig12= 6.70D-15 3.53D-09.
     15 vectors produced by pass 40 Test12= 5.67D-14 1.00D-09 XBig12= 1.37D-14 5.07D-09.
     15 vectors produced by pass 41 Test12= 5.67D-14 1.00D-09 XBig12= 6.94D-15 3.73D-09.
     15 vectors produced by pass 42 Test12= 5.67D-14 1.00D-09 XBig12= 1.39D-14 5.27D-09.
     15 vectors produced by pass 43 Test12= 5.67D-14 1.00D-09 XBig12= 1.00D-14 4.23D-09.
     15 vectors produced by pass 44 Test12= 5.67D-14 1.00D-09 XBig12= 1.08D-14 4.88D-09.
     13 vectors produced by pass 45 Test12= 5.67D-14 1.00D-09 XBig12= 6.05D-15 3.16D-09.
     13 vectors produced by pass 46 Test12= 5.67D-14 1.00D-09 XBig12= 1.14D-14 4.48D-09.
      8 vectors produced by pass 47 Test12= 5.67D-14 1.00D-09 XBig12= 5.00D-15 3.02D-09.
      8 vectors produced by pass 48 Test12= 5.67D-14 1.00D-09 XBig12= 8.37D-15 3.59D-09.
      5 vectors produced by pass 49 Test12= 5.67D-14 1.00D-09 XBig12= 3.21D-15 2.63D-09.
      5 vectors produced by pass 50 Test12= 5.67D-14 1.00D-09 XBig12= 8.46D-15 4.33D-09.
      5 vectors produced by pass 51 Test12= 5.67D-14 1.00D-09 XBig12= 9.01D-15 3.68D-09.
      5 vectors produced by pass 52 Test12= 5.67D-14 1.00D-09 XBig12= 8.99D-15 3.44D-09.
      5 vectors produced by pass 53 Test12= 5.67D-14 1.00D-09 XBig12= 6.69D-15 3.12D-09.
      5 vectors produced by pass 54 Test12= 5.67D-14 1.00D-09 XBig12= 3.37D-15 2.44D-09.
      5 vectors produced by pass 55 Test12= 5.67D-14 1.00D-09 XBig12= 1.03D-14 4.45D-09.
      5 vectors produced by pass 56 Test12= 5.67D-14 1.00D-09 XBig12= 4.56D-15 2.90D-09.
      5 vectors produced by pass 57 Test12= 5.67D-14 1.00D-09 XBig12= 7.28D-15 3.38D-09.
      5 vectors produced by pass 58 Test12= 5.67D-14 1.00D-09 XBig12= 1.42D-14 4.81D-09.
      5 vectors produced by pass 59 Test12= 5.67D-14 1.00D-09 XBig12= 9.87D-15 3.59D-09.
      5 vectors produced by pass 60 Test12= 5.67D-14 1.00D-09 XBig12= 6.92D-15 4.27D-09.
      5 vectors produced by pass 61 Test12= 5.67D-14 1.00D-09 XBig12= 1.19D-14 4.73D-09.
      4 vectors produced by pass 62 Test12= 5.67D-14 1.00D-09 XBig12= 2.28D-15 2.07D-09.
      4 vectors produced by pass 63 Test12= 5.67D-14 1.00D-09 XBig12= 5.66D-15 2.76D-09.
      4 vectors produced by pass 64 Test12= 5.67D-14 1.00D-09 XBig12= 8.87D-15 4.25D-09.
      4 vectors produced by pass 65 Test12= 5.67D-14 1.00D-09 XBig12= 9.50D-15 3.96D-09.
      4 vectors produced by pass 66 Test12= 5.67D-14 1.00D-09 XBig12= 6.77D-15 3.17D-09.
      4 vectors produced by pass 67 Test12= 5.67D-14 1.00D-09 XBig12= 6.32D-15 3.39D-09.
      4 vectors produced by pass 68 Test12= 5.67D-14 1.00D-09 XBig12= 6.57D-15 3.76D-09.
      4 vectors produced by pass 69 Test12= 5.67D-14 1.00D-09 XBig12= 4.67D-15 3.00D-09.
      4 vectors produced by pass 70 Test12= 5.67D-14 1.00D-09 XBig12= 5.07D-15 2.78D-09.
      4 vectors produced by pass 71 Test12= 5.67D-14 1.00D-09 XBig12= 6.48D-15 3.05D-09.
      4 vectors produced by pass 72 Test12= 5.67D-14 1.00D-09 XBig12= 2.62D-15 1.96D-09.
      4 vectors produced by pass 73 Test12= 5.67D-14 1.00D-09 XBig12= 8.71D-15 3.72D-09.
      4 vectors produced by pass 74 Test12= 5.67D-14 1.00D-09 XBig12= 6.51D-15 3.43D-09.
      4 vectors produced by pass 75 Test12= 5.67D-14 1.00D-09 XBig12= 5.78D-15 2.83D-09.
      4 vectors produced by pass 76 Test12= 5.67D-14 1.00D-09 XBig12= 8.70D-15 3.80D-09.
      4 vectors produced by pass 77 Test12= 5.67D-14 1.00D-09 XBig12= 3.78D-15 2.68D-09.
      4 vectors produced by pass 78 Test12= 5.67D-14 1.00D-09 XBig12= 5.13D-15 2.66D-09.
      3 vectors produced by pass 79 Test12= 5.67D-14 1.00D-09 XBig12= 2.79D-15 2.24D-09.
      3 vectors produced by pass 80 Test12= 5.67D-14 1.00D-09 XBig12= 6.83D-15 3.35D-09.
      3 vectors produced by pass 81 Test12= 5.67D-14 1.00D-09 XBig12= 3.29D-15 2.08D-09.
      3 vectors produced by pass 82 Test12= 5.67D-14 1.00D-09 XBig12= 5.38D-15 2.93D-09.
      3 vectors produced by pass 83 Test12= 5.67D-14 1.00D-09 XBig12= 4.13D-15 2.67D-09.
      3 vectors produced by pass 84 Test12= 5.67D-14 1.00D-09 XBig12= 7.14D-15 3.60D-09.
      3 vectors produced by pass 85 Test12= 5.67D-14 1.00D-09 XBig12= 2.72D-15 2.00D-09.
      3 vectors produced by pass 86 Test12= 5.67D-14 1.00D-09 XBig12= 4.80D-15 2.43D-09.
      3 vectors produced by pass 87 Test12= 5.67D-14 1.00D-09 XBig12= 3.50D-15 2.47D-09.
      3 vectors produced by pass 88 Test12= 5.67D-14 1.00D-09 XBig12= 4.86D-15 2.52D-09.
      3 vectors produced by pass 89 Test12= 5.67D-14 1.00D-09 XBig12= 4.08D-15 2.63D-09.
      3 vectors produced by pass 90 Test12= 5.67D-14 1.00D-09 XBig12= 5.17D-15 3.12D-09.
      3 vectors produced by pass 91 Test12= 5.67D-14 1.00D-09 XBig12= 3.41D-15 2.49D-09.
      3 vectors produced by pass 92 Test12= 5.67D-14 1.00D-09 XBig12= 3.60D-15 2.53D-09.
      3 vectors produced by pass 93 Test12= 5.67D-14 1.00D-09 XBig12= 5.77D-15 3.17D-09.
      3 vectors produced by pass 94 Test12= 5.67D-14 1.00D-09 XBig12= 5.67D-15 3.00D-09.
      3 vectors produced by pass 95 Test12= 5.67D-14 1.00D-09 XBig12= 5.38D-15 2.81D-09.
      3 vectors produced by pass 96 Test12= 5.67D-14 1.00D-09 XBig12= 5.39D-15 2.88D-09.
      3 vectors produced by pass 97 Test12= 5.67D-14 1.00D-09 XBig12= 6.34D-15 2.98D-09.
      3 vectors produced by pass 98 Test12= 5.67D-14 1.00D-09 XBig12= 4.32D-15 2.95D-09.
      3 vectors produced by pass 99 Test12= 5.67D-14 1.00D-09 XBig12= 5.34D-15 2.84D-09.
      3 vectors produced by pass100 Test12= 5.67D-14 1.00D-09 XBig12= 3.13D-15 2.55D-09.
      3 vectors produced by pass101 Test12= 5.67D-14 1.00D-09 XBig12= 3.17D-15 2.19D-09.
      3 vectors produced by pass102 Test12= 5.67D-14 1.00D-09 XBig12= 8.01D-15 3.75D-09.
      3 vectors produced by pass103 Test12= 5.67D-14 1.00D-09 XBig12= 5.91D-15 3.57D-09.
      3 vectors produced by pass104 Test12= 5.67D-14 1.00D-09 XBig12= 5.23D-15 2.97D-09.
      3 vectors produced by pass105 Test12= 5.67D-14 1.00D-09 XBig12= 6.24D-15 3.11D-09.
      3 vectors produced by pass106 Test12= 5.67D-14 1.00D-09 XBig12= 4.59D-15 2.80D-09.
      3 vectors produced by pass107 Test12= 5.67D-14 1.00D-09 XBig12= 5.75D-15 2.97D-09.
      3 vectors produced by pass108 Test12= 5.67D-14 1.00D-09 XBig12= 4.12D-15 2.18D-09.
      3 vectors produced by pass109 Test12= 5.67D-14 1.00D-09 XBig12= 2.87D-15 2.10D-09.
      3 vectors produced by pass110 Test12= 5.67D-14 1.00D-09 XBig12= 8.12D-15 3.41D-09.
      3 vectors produced by pass111 Test12= 5.67D-14 1.00D-09 XBig12= 5.25D-15 2.94D-09.
      3 vectors produced by pass112 Test12= 5.67D-14 1.00D-09 XBig12= 5.96D-15 3.14D-09.
      3 vectors produced by pass113 Test12= 5.67D-14 1.00D-09 XBig12= 6.89D-15 3.36D-09.
      3 vectors produced by pass114 Test12= 5.67D-14 1.00D-09 XBig12= 4.54D-15 2.53D-09.
      3 vectors produced by pass115 Test12= 5.67D-14 1.00D-09 XBig12= 8.45D-15 3.31D-09.
      3 vectors produced by pass116 Test12= 5.67D-14 1.00D-09 XBig12= 4.75D-15 2.76D-09.
      3 vectors produced by pass117 Test12= 5.67D-14 1.00D-09 XBig12= 4.05D-15 3.02D-09.
      3 vectors produced by pass118 Test12= 5.67D-14 1.00D-09 XBig12= 6.55D-15 2.96D-09.
      3 vectors produced by pass119 Test12= 5.67D-14 1.00D-09 XBig12= 3.17D-15 2.20D-09.
      3 vectors produced by pass120 Test12= 5.67D-14 1.00D-09 XBig12= 3.31D-15 2.40D-09.
      3 vectors produced by pass121 Test12= 5.67D-14 1.00D-09 XBig12= 5.48D-15 2.89D-09.
      3 vectors produced by pass122 Test12= 5.67D-14 1.00D-09 XBig12= 3.98D-15 2.10D-09.
      3 vectors produced by pass123 Test12= 5.67D-14 1.00D-09 XBig12= 2.69D-15 1.83D-09.
      3 vectors produced by pass124 Test12= 5.67D-14 1.00D-09 XBig12= 7.95D-15 3.36D-09.
      3 vectors produced by pass125 Test12= 5.67D-14 1.00D-09 XBig12= 4.85D-15 3.07D-09.
      3 vectors produced by pass126 Test12= 5.67D-14 1.00D-09 XBig12= 5.42D-15 3.29D-09.
      1 vectors produced by pass127 Test12= 5.67D-14 1.00D-09 XBig12= 2.19D-15 1.78D-09.
 InvSVY:  IOpt=1 It=  1 EMax= 1.07D-14
 Solved reduced A of dimension  2468 with   159 vectors.
 FullF1:  Do perturbations    1 to     3.
 Isotropic polarizability for W=    0.000000      339.80 Bohr**3.
 End of Minotr F.D. properties file   721 does not exist.
 End of Minotr F.D. properties file   722 does not exist.
 End of Minotr F.D. properties file   788 does not exist.
 Leave Link 1002 at Tue May  8 20:50:58 2018, MaxMem=  1073741824 cpu:    117558.1
 (Enter /ihome/crc/build/g09/g09-D.01/TAR/g09/l601.exe)
 Copying SCF densities to generalized density rwf, IOpCl= 0 IROHF=0.

 **********************************************************************

            Population analysis using the SCF density.

 **********************************************************************

 Orbital symmetries:
       Occupied  (A) (A) (A) (A) (A) (A) (A) (A) (A) (A) (A) (A)
                 (A) (A) (A) (A) (A) (A) (A) (A) (A) (A) (A) (A)
                 (A) (A) (A) (A) (A) (A) (A) (A) (A) (A) (A) (A)
                 (A) (A) (A) (A) (A) (A) (A) (A) (A) (A) (A) (A)
                 (A) (A) (A) (A) (A) (A) (A) (A) (A) (A) (A) (A)
                 (A) (A) (A) (A) (A) (A) (A) (A) (A) (A) (A) (A)
                 (A) (A) (A) (A) (A) (A) (A) (A) (A) (A) (A) (A)
                 (A) (A) (A) (A) (A) (A) (A) (A) (A)
       Virtual   (A) (A) (A) (A) (A) (A) (A) (A) (A) (A) (A) (A)
                 (A) (A) (A) (A) (A) (A) (A) (A) (A) (A) (A) (A)
                 (A) (A) (A) (A) (A) (A) (A) (A) (A) (A) (A) (A)
                 (A) (A) (A) (A) (A) (A) (A) (A) (A) (A) (A) (A)
                 (A) (A) (A) (A) (A) (A) (A) (A) (A) (A) (A) (A)
                 (A) (A) (A) (A) (A) (A) (A) (A) (A) (A) (A) (A)
                 (A) (A) (A) (A) (A) (A) (A) (A) (A) (A) (A) (A)
                 (A) (A) (A) (A) (A) (A) (A) (A) (A) (A) (A) (A)
                 (A) (A) (A) (A) (A) (A) (A) (A) (A) (A) (A) (A)
                 (A) (A) (A) (A) (A) (A) (A) (A) (A) (A) (A) (A)
                 (A) (A) (A) (A) (A) (A) (A) (A) (A) (A) (A) (A)
                 (A) (A) (A) (A) (A) (A) (A) (A) (A) (A) (A) (A)
                 (A) (A) (A) (A) (A) (A) (A) (A) (A) (A) (A) (A)
                 (A) (A) (A) (A) (A) (A) (A) (A) (A) (A) (A) (A)
                 (A) (A) (A) (A) (A) (A) (A) (A) (A) (A) (A) (A)
                 (A) (A) (A) (A) (A) (A) (A) (A) (A) (A) (A) (A)
                 (A) (A) (A) (A) (A) (A) (A) (A) (A) (A) (A) (A)
                 (A) (A) (A) (A) (A) (A) (A) (A) (A) (A) (A) (A)
                 (A) (A) (A) (A) (A) (A) (A) (A) (A) (A) (A) (A)
                 (A) (A) (A) (A) (A) (A) (A) (A) (A) (A) (A) (A)
                 (A) (A) (A) (A) (A) (A) (A) (A) (A) (A) (A) (A)
                 (A) (A) (A) (A) (A) (A) (A) (A) (A) (A) (A) (A)
                 (A) (A) (A) (A) (A) (A) (A) (A) (A) (A) (A) (A)
                 (A) (A) (A) (A) (A) (A) (A) (A) (A) (A) (A) (A)
                 (A) (A) (A) (A) (A) (A) (A) (A) (A) (A) (A) (A)
[...]
 05180,0.00006928,0.00003699,0.00028281,0.00008670,0.00006063,-0.000077
 92,-0.00007675,-0.00000363,-0.00004519,-0.00033408,-0.00002865,0.00022
 984,-0.00031638,-0.00037217,0.00060139,-0.00000108,0.00000077,-0.00000
 063,-0.00000105,0.00000122,-0.00000139,0.00000560,0.00001208,-0.000006
 77,-0.00000092,0.00000567,0.00000080,-0.00000390,0.00000061,-0.0000022
 0,0.00001936,0.00002208,-0.00000150,0.00003164,-0.00000442,-0.00002484
 ,0.00037082,-0.00192567,0.00029329,-0.00000529,0.00000200,-0.00002922,
 0.00006059,-0.00000131,0.00001549,0.00000919,-0.00000033,-0.00002547,-
 0.00001920,-0.00000790,0.00002590,-0.00000412,-0.00001141,-0.00001780,
 0.00001798,0.00001216,-0.00000897,0.00001133,0.00000259,-0.00000383,0.
 00001024,0.00001594,-0.00000390,0.00019316,-0.00070043,0.00045756,-0.0
 1847850,0.09235729,-0.26759936,-0.00007962,-0.00053798,0.00057472,-0.0
 0003095,-0.00001117,0.00000465,-0.00000928,-0.00001685,-0.00002266,-0.
 00003319,-0.00000788,0.00001349,-0.00000200,0.00000815,-0.00000054,0.0
 0002213,-0.00000117,-0.00000897,-0.00002161,-0.00000140,-0.00000489,0.
 00000237,0.00000575,-0.00000470,-0.00001049,-0.00000195,-0.00001458,0.
 00000191,0.00000123,0.00000397,0.00000448,0.00000437,0.00001912,-0.000
 02436,-0.00000291,-0.00002794,0.00005354,0.00003300,-0.00000002,-0.000
 04876,0.00002506,0.00027850,-0.00007941,-0.00018460,-0.00002962,0.0000
 4007,0.00013200,-0.00002351,-0.00219393,0.00518934,-0.01312899,0.00033
 613,0.00513490,-0.01187021,0.02021691,-0.09977611,0.28984358,0.0000026
 3,-0.00000318,-0.00000364,-0.00000130,-0.00000222,-0.00000246,0.000008
 60,0.00000480,-0.00000523,-0.00001585,-0.00002119,-0.00000791,-0.00000
 332,-0.00000337,0.00000080,-0.00000314,-0.00000307,0.00000073,0.000040
 76,-0.00017323,-0.00049945,-0.00001650,-0.00007200,0.00020618,0.000086
 06,0.00014038,0.00005785,0.00027108,0.00018831,-0.00021106,0.00006661,
 -0.00057516,0.00000894,0.00033315,-0.00015092,0.00143912,-0.00000057,-
 0.00000109,-0.00000108,-0.00000062,-0.00000050,-0.00000041,-0.00000456
 ,0.00000128,0.00000385,0.00000040,-0.00000057,-0.00000238,0.00000035,0
 .00000176,0.00000133,-0.00002365,0.00002677,-0.00002660,0.00002448,0.0
 0003138,0.00001628,-0.01996974,0.00541678,0.01281967,0.00000712,-0.000
 00862,-0.00002367,0.00046269,0.00048131,-0.00000085,0.00008243,0.00008
 883,0.00001700,-0.00003105,-0.00002614,0.00000451,-0.00004325,-0.00004
 101,-0.00000285,-0.00000619,0.00000164,0.00000290,0.00000851,0.0000136
 0,-0.00000152,-0.00000091,-0.00001233,0.00000788,-0.24415665,0.0413009
 5,0.10542766,0.00079813,0.00129051,0.00064334,-0.00339482,-0.00308058,
 -0.00427662,0.00000690,0.00000143,-0.00000458,0.00000417,-0.00000131,0
 .00003705,0.00001928,-0.00000186,0.00001890,0.00000194,-0.00000494,0.0
 0000430,0.00001390,0.00001567,0.00000404,0.00000705,-0.00000008,-0.000
 01557,-0.00000223,-0.00000058,0.00000067,0.00000262,0.00000102,0.00000
 088,0.00000367,-0.00000019,-0.00000945,0.00000303,-0.00000479,-0.00001
 329,0.00000321,0.00000699,-0.00000025,-0.00000665,0.00000912,0.0000037
 5,0.00027549,0.00008143,-0.00007133,0.00032152,-0.00003173,0.00004829,
 -0.00150608,0.00022781,0.00091564,0.00046823,-0.00055024,-0.00020491,0
 .00025344,0.00007179,-0.00027642,-0.00004448,-0.00009156,-0.00008831,0
 .26543007,-0.00000043,0.00000093,-0.00000180,0.00000056,-0.00000201,0.
 00000023,0.00000355,-0.00000327,0.00000230,-0.00000838,0.00000298,-0.0
 0000376,0.00000127,-0.00000417,0.00000113,0.00000014,0.,0.00000120,-0.
 00003879,-0.00018998,-0.00005729,0.00001782,-0.00001217,0.00007040,0.0
 0001810,0.00005434,-0.00006814,-0.00015768,-0.00008237,-0.00010243,0.0
 0043464,0.00029760,0.00009078,0.00043988,0.00022260,0.00021470,-0.0000
 0022,-0.00000008,-0.00000039,-0.00000030,0.00000038,-0.00000009,-0.000
 00275,0.00000211,-0.00000131,-0.00000051,0.00000034,-0.00000144,-0.000
 00032,0.00000044,-0.00000008,-0.00000062,0.00000606,0.00001187,-0.0000
 1978,-0.00000580,-0.00001543,-0.01025872,0.00083807,0.00748525,0.00001
 867,-0.00000459,-0.00000027,0.00025687,-0.00058862,0.00051189,0.000014
 39,0.00001075,0.00000171,-0.00000449,-0.00000385,0.00000082,-0.0000048
 6,-0.00000515,0.00000012,-0.00000529,0.00000611,-0.00001472,-0.0000147
 6,-0.00001034,0.00001248,0.00000016,0.00000805,-0.00000582,0.04189967,
 -0.05719656,-0.02328264,-0.00057896,0.00091633,0.00063555,-0.00200492,
 -0.00093820,-0.00139878,-0.00000386,-0.00000820,0.00000065,-0.00000533
 ,-0.00001313,-0.00000638,-0.00001008,0.00000336,-0.00000516,0.00000117
 ,0.00000149,-0.00000055,0.00000548,0.00000269,0.00000123,-0.00000713,0
 .00000082,-0.00000186,0.00000308,-0.00000125,0.00000037,-0.00000304,-0
 .00000092,-0.00000285,-0.00000062,0.00000224,-0.00000114,0.00000180,0.
 00000107,-0.00000438,-0.00000100,-0.00000638,-0.00000114,-0.00000424,0
 .00000433,0.00000064,-0.00020162,0.00028045,0.00007583,0.00012656,-0.0
 0005475,-0.00024786,-0.00077898,0.00059051,0.00018043,0.00007251,0.000
 22793,-0.00012260,0.00014328,0.00012661,0.00005482,0.00001541,-0.00006
 987,0.00008864,-0.04397123,0.05765106,-0.00000100,0.00000052,-0.000001
 44,0.00000021,-0.00000051,0.00000035,0.00000111,-0.00000071,0.00000133
 ,-0.00000046,0.00000139,-0.00000002,-0.00000069,-0.00000114,-0.0000006
 1,0.00000027,0.00000183,-0.00000004,0.00014789,-0.00014195,0.00008558,
 -0.00001038,-0.00009822,0.00013222,0.00019949,0.00004848,0.00000862,-0
 .00020670,-0.00003920,-0.00021704,-0.00004941,0.00063405,-0.00049312,0
 .00012277,0.00046717,0.00066768,0.00000080,0.00000049,0.00000017,0.000
 00014,-0.00000024,-0.00000003,0.00000005,-0.00000118,0.00000033,-0.000
 00033,-0.00000108,0.00000050,0.00000031,-0.00000019,-0.00000030,-0.000
 02439,0.00000018,0.00001304,-0.00000504,-0.00000643,-0.00000265,-0.013
 75223,0.00360997,0.00795740,-0.00002836,0.00002216,0.00003117,-0.00082
 203,0.00097246,-0.00122717,-0.00000272,-0.00000586,-0.00000310,0.00000
 094,0.00000176,0.00000053,0.00000156,0.00000416,0.00000309,-0.00000571
 ,-0.00000260,0.00000417,-0.00000110,0.00000663,0.00000116,0.00000756,0
 .00000569,-0.00000251,0.10699801,-0.02410854,-0.10621975,-0.00008783,0
 .00079835,0.00050070,-0.00219361,-0.00111915,-0.00130329,0.00001060,0.
 00000740,-0.00000035,-0.00000584,0.00000059,0.00001037,0.00001021,0.00
 000015,0.00000145,-0.00000080,-0.00000145,-0.00000067,0.00000108,0.000
 00138,0.00000103,0.00000451,0.00000198,-0.00000207,-0.00000217,-0.0000
 0013,-0.00000118,0.00000419,0.00000079,0.00000576,-0.00000109,0.000000
 21,-0.00000157,-0.00000106,-0.00000215,-0.00000183,0.00000363,0.000004
 23,0.00000226,-0.00000318,-0.00000250,0.00000201,0.00001721,-0.0000357
 0,-0.00014471,-0.00012552,-0.00015871,0.00029180,-0.00077809,-0.000042
 96,0.00067144,0.00021175,0.00023061,0.00015666,0.00000280,0.00021260,0
 .00000122,0.00009091,-0.00009763,-0.00003201,-0.11560016,0.02508690,0.
 11379027,-0.00000040,-0.00000009,0.00000268,0.00000041,0.00000178,-0.0
 0000004,-0.00000441,-0.00000053,-0.00000065,0.00000438,0.00000444,0.00
 000606,0.00000297,0.00000015,0.00000100,0.00000059,0.00000012,0.000000
 29,-0.00050797,0.00027316,-0.00218785,-0.00019267,-0.00006070,-0.00007
 914,-0.00008129,0.00002323,-0.00003016,0.00029650,0.00008001,0.0000621
 5,-0.00032999,-0.00052559,0.00000378,-0.00347540,-0.00317943,0.0000353
 9,-0.00000022,0.00000007,0.00000010,0.,0.00000036,0.00000014,0.0000002
 5,0.00000145,-0.00000213,-0.00000020,0.00000079,0.00000030,-0.00000060
 ,-0.00000041,-0.00000055,0.00002958,0.00008285,-0.00006185,0.00003025,
 0.00003743,-0.00000180,-0.00263710,0.01050694,-0.02364146,-0.00000429,
 0.00000231,-0.00003877,0.00028853,0.00028361,0.00028892,-0.00000991,-0
 .00002115,-0.00001072,0.00000123,0.00000508,0.00000621,0.00000778,0.00
 000943,-0.00000096,0.00001115,0.00000841,-0.00000397,0.00001736,0.0000
 1400,-0.00000517,0.00001064,0.00000369,-0.00000172,-0.04638553,0.00459
 465,-0.00966175,0.00060148,0.00123511,0.00009013,0.00108104,0.00064674
 ,-0.00109398,-0.00004682,-0.00003248,-0.00000346,-0.00000253,-0.000013
 01,-0.00001775,-0.00001748,0.00000961,0.00000003,0.00000047,0.00000435
 ,-0.00000066,0.00000938,0.00000054,-0.00000681,-0.00001549,-0.00000043
 ,-0.00000191,0.00000318,0.00000120,0.00000157,-0.00000848,0.00000119,-
 0.00002261,0.00000268,0.00000125,0.00000068,0.00000298,-0.00000051,-0.
 00000212,-0.00000535,-0.00001128,-0.00000895,0.00000391,0.00000954,-0.
 00000439,-0.00007260,0.00004038,0.00006675,-0.00070145,-0.00035074,0.0
 0057671,0.00027465,-0.00003231,0.00012036,-0.00001609,-0.00011654,0.00
 010298,-0.00007043,0.00019367,0.00021727,0.00004753,-0.00036686,0.0000
 6765,0.00231142,-0.01227540,0.02458061,0.05073610,0.00000152,-0.000000
 34,-0.00000043,-0.00000082,-0.00000126,0.00000027,-0.00000061,0.000001
 10,0.00000036,0.00000109,0.00000161,-0.00000056,0.00000030,-0.00000368
 ,0.00000037,0.00000092,0.00000196,0.00000043,-0.00056223,0.00048316,-0
 .00100548,-0.00005782,-0.00009209,-0.00005920,0.00007241,-0.00003013,0
 .00001019,0.00011725,0.00022870,0.00000239,-0.00052201,-0.00023892,0.0
 0014194,-0.00208997,-0.00130968,-0.00034915,0.00000017,0.00000057,0.00
 000010,-0.00000014,0.00000023,-0.00000003,-0.00000199,0.00000109,-0.00
 000219,-0.00000051,-0.00000027,-0.00000076,0.,0.00000029,-0.00000033,0
 .00002196,0.00000488,-0.00005060,0.00003650,0.00001551,0.00000418,-0.0
 0075023,0.00386495,-0.01263333,-0.00001368,0.00003707,0.00001217,0.000
 47848,0.00012443,0.00016837,-0.00001896,-0.00001399,0.00000584,0.00001
 245,0.00000356,-0.00000728,0.00000701,0.00000932,0.00000294,0.00000047
 ,-0.00000354,0.00001375,0.00001010,-0.00000010,-0.00001132,-0.00000011
 ,0.00000184,-0.00000786,0.00552215,-0.09009991,0.09794417,-0.00019029,
 0.00078339,-0.00107226,0.00054365,0.00014068,-0.00015902,-0.00000890,-
 0.00000924,-0.00000447,0.00000872,0.00000192,0.00000987,0.00000513,-0.
 00000009,-0.00000023,-0.00000212,0.00000020,-0.00000018,0.00000043,0.0
 0000102,-0.00000058,0.00000255,0.00000158,-0.00000196,-0.00000125,0.00
 000147,-0.00000063,-0.00000116,0.00000398,-0.00000438,0.00000050,-0.00
 000036,-0.00000060,0.00000033,-0.00000092,-0.00000183,0.00000096,0.000
 00159,0.00000022,-0.00000321,0.00000219,-0.00000023,-0.00001781,-0.000
 03519,0.00012541,0.00004116,0.00004016,0.00013799,0.00014310,-0.000047
 66,-0.00012599,0.00008339,-0.00007056,-0.00002529,0.00015421,0.0001815
 7,0.00000887,-0.00038005,-0.00008881,-0.00015376,-0.00078323,0.0020525
 4,-0.00645814,-0.00262552,0.09523494,-0.00000253,-0.00000015,0.0000007
 8,0.00000270,0.00000104,0.00000082,-0.00000012,-0.00000466,0.00000251,
 -0.00000066,0.00000175,0.00000273,0.00000327,0.00000029,0.00000203,0.0
 0000116,-0.00000341,0.00000154,-0.00050492,0.00041665,-0.00123889,-0.0
 0008326,-0.00006947,-0.00007904,-0.00014320,-0.00007941,-0.00017284,0.
 00002835,-0.00007268,0.00029585,-0.00000996,0.00016499,-0.00005474,-0.
 00209899,-0.00218758,0.00111276,-0.00000048,0.00000047,-0.00000051,-0.
 00000046,0.00000068,-0.00000088,-0.00000201,0.00000441,-0.00000418,-0.
 00000109,0.00000256,-0.00000037,-0.00000141,0.00000076,-0.00000097,0.0
 0006730,0.00005634,-0.00003910,-0.00000065,0.00000646,-0.00002444,-0.0
 0039373,0.00664718,-0.01606816,-0.00003817,0.00003433,-0.00003270,-0.0
 0013732,-0.00022886,-0.00001035,0.00001094,0.00000617,-0.00001237,-0.0
 0000924,-0.00000403,0.00001137,-0.00000196,-0.00000579,-0.00000159,0.0
 0001940,0.00001738,-0.00002278,0.00000662,-0.00000206,0.00000147,0.000
 01575,0.00002670,-0.00001662,-0.01149302,0.09656342,-0.26385658,0.0006
 7237,0.00099846,0.00023577,0.00131644,0.00031530,0.00047128,-0.0000562
 0,-0.00004622,-0.00000059,-0.00000953,-0.00003156,-0.00003559,-0.00004
 551,0.00001358,-0.00002128,0.00000392,0.00000434,0.00000043,0.00001343
 ,0.00000477,-0.00000729,-0.00002994,-0.00000182,-0.00000185,0.00000702
 ,-0.00000034,0.00000301,-0.00001689,-0.00000007,-0.00002701,0.00000330
 ,0.00000400,0.00000404,0.00000661,0.00000272,-0.00000121,-0.00001175,-
 0.00002533,-0.00001176,0.00000422,0.00001445,-0.00000483,-0.00007062,-
 0.00009348,-0.00001067,-0.00009326,0.00008097,0.00052599,0.00007100,-0
 .00030034,0.00025732,-0.00007891,-0.00006085,-0.00005586,-0.00002962,-
 0.00004573,0.00038811,-0.00017360,-0.00078570,0.00008166,-0.00120111,0
 .00562929,-0.01246733,0.01424350,-0.10524507,0.28652545,-0.00000230,0.
 00000059,0.00000026,0.00000178,0.00000030,0.00000012,0.00000089,-0.000
 00239,-0.00000006,-0.00000373,0.00000040,-0.00000282,0.00000255,0.0000
 0376,0.00000267,-0.00000284,-0.00000184,-0.00000193,-0.00028990,0.0001
 0167,0.00002433,0.00001354,-0.00007877,0.00016987,0.00010852,0.0001166
 5,-0.00004624,-0.00016431,-0.00000581,-0.00018795,0.00033058,0.0004106
 4,-0.00000174,0.00080046,-0.00002358,0.00080734,-0.00000034,-0.0000006
 4,-0.00000021,-0.00000010,-0.00000041,-0.00000001,0.00000337,0.0000009
 9,0.00000405,0.00000064,0.00000057,0.00000092,0.,-0.00000049,0.0000003
 9,0.00000889,-0.00002014,-0.00000752,-0.00000660,-0.00000621,-0.000013
 25,0.00299749,-0.02488636,-0.00046842,0.00002369,-0.00002630,-0.000013
 33,-0.00013656,0.00000123,-0.00008848,0.00002825,0.00002555,-0.0000031
 6,-0.00002148,-0.00000880,0.00001118,-0.00000708,-0.00001608,-0.000008
 27,-0.00000483,0.00000659,-0.00000969,-0.00001236,0.00000488,0.0000103
 8,0.00000283,0.00000244,0.00000262,-0.05216832,0.02983784,0.00331255,-
 0.00398307,-0.00152629,-0.00261564,0.00162932,-0.00069652,-0.00011349,
 -0.00000213,0.00000385,0.00000176,0.00000335,-0.00000047,0.00000045,-0
 .00000839,-0.00000819,0.00001106,-0.00000433,0.00000631,-0.00000518,0.
 00000355,-0.00000815,-0.00000306,-0.00000107,0.00000178,0.00000168,0.0
 0000037,0.00000211,-0.00000462,-0.00000011,-0.00000006,0.00000017,-0.0
 0000117,0.00000082,0.00000111,-0.00000029,0.00000093,0.00000148,-0.000
 00239,0.00000184,-0.00000706,0.00001165,0.00000540,-0.00000082,-0.0000
 0594,0.00046918,-0.00015384,-0.00003191,0.00002883,0.00011234,0.000213
 75,0.00017405,-0.00004116,0.00018114,-0.00006011,-0.00017637,0.0003613
 8,-0.00160418,-0.00036013,-0.00009729,0.00018581,0.00006225,-0.0020873
 8,0.02688928,0.00129124,-0.00118978,0.00076571,0.00024281,0.05350803,-
 0.00000374,-0.00000024,0.00000077,0.00000273,0.00000302,-0.00000152,0.
 00000091,-0.00000225,-0.00000240,-0.00000716,-0.00000770,-0.00000037,0
 .00000124,0.00000946,0.00000136,-0.00000550,-0.00000422,-0.00000269,-0
 .00026770,0.00019095,-0.00034740,0.00002750,-0.00006241,0.00008805,0.0
 0008548,-0.00004579,-0.00003913,0.00023661,0.00029351,0.00007238,-0.00
 068512,-0.00007795,0.00039459,0.00013970,-0.00015286,0.00092049,-0.000
 00062,-0.00000199,-0.00000019,0.00000034,-0.00000100,0.00000031,0.0000
 0603,-0.00000220,0.00000634,0.00000216,0.00000045,0.00000251,0.,-0.000
 00083,0.00000158,0.00000522,0.00000569,-0.00003867,0.00004056,0.000012
 77,0.00000772,0.00223158,-0.01230016,-0.00073069,-0.00001861,0.0000456
 2,-0.00000301,0.00041923,0.00033672,0.00059875,0.00006877,0.00005829,-
 0.00001049,-0.00004175,-0.00001599,0.00002094,-0.00002675,-0.00003555,
 -0.00001032,0.00000073,-0.00000429,0.00001246,0.00000458,-0.00000176,-
 0.00001180,-0.00000239,0.00000380,-0.00000770,0.02890140,-0.30200075,-
 0.02669730,-0.00340571,0.00009351,-0.00188951,0.00084928,0.00043784,0.
 00016135,-0.00000336,0.00000192,-0.00000207,0.00000910,0.00000346,0.00
 001956,0.00001123,-0.00000550,0.00002435,-0.00000640,0.00000852,-0.000
 00508,0.00000665,-0.00000628,-0.00000367,0.00000425,0.00000180,-0.0000
 0260,-0.00000250,0.00000769,-0.00000403,0.00000061,0.00000154,-0.00000
 115,-0.00000048,-0.00000149,0.00000075,-0.00000173,-0.00000019,0.00000
 657,-0.00000435,0.00001030,-0.00000770,0.00001802,0.00000597,-0.000002
 59,-0.00043391,0.00039463,0.00027880,-0.00007942,-0.00007132,-0.000054
 56,-0.00009123,0.00029572,-0.00005481,0.00013298,0.00020091,0.00006396
 ,0.00010171,-0.00097585,-0.00013604,0.00009922,0.00034792,0.00004012,0
 .00021337,-0.00411055,0.00020421,0.00153544,-0.01118078,-0.00172483,-0
 .03006820,0.32829786,-0.00000052,-0.00000124,0.00000022,0.00000041,0.0
 0000137,-0.00000161,-0.00000024,0.00000035,-0.00000189,-0.00000296,-0.
 00000599,0.00000114,0.00000031,0.00000477,-0.00000126,-0.00000261,-0.0
 0000187,-0.00000028,-0.00009318,0.00017405,-0.00000123,-0.00002454,-0.
 00008367,0.00015463,0.00012270,0.00011403,0.00006775,0.00001382,0.0001
 0482,-0.00012400,-0.00005054,-0.00019681,-0.00047124,0.00058798,-0.000
 40000,0.00077123,-0.00000049,-0.00000108,-0.00000009,0.00000002,-0.000
 00042,0.00000031,0.00000281,-0.00000129,0.00000335,0.00000129,-0.00000
 015,0.00000067,-0.00000023,-0.00000026,0.00000092,-0.00000101,-0.00002
 081,-0.00001939,0.00001831,0.00000642,0.00000927,0.00311304,-0.0160132
 6,-0.00243005,0.00001734,-0.00002393,-0.00000595,0.00032290,-0.0000725
 2,-0.00168805,0.00002993,0.00003098,-0.00000211,-0.00001590,-0.0000087
 8,0.00000718,-0.00001258,-0.00001659,-0.00000369,0.00000343,0.00000282
 ,0.00001475,0.00001585,-0.00000552,-0.00001235,-0.00000847,-0.00000412
 ,-0.00000296,0.00244028,-0.02553050,-0.04975079,-0.00285291,-0.0006684
 4,-0.00156611,0.00084857,0.00030757,0.00007904,0.00000995,0.00001037,-
 0.00000194,0.00000749,0.00000867,0.00001677,0.00001257,-0.00001316,0.0
 0001788,-0.00000530,0.00000333,-0.00000172,0.00000041,-0.00000325,-0.0
 0000001,0.00000909,0.00000200,-0.00000123,-0.00000241,0.00000416,-0.00
 000314,0.00000453,0.00000190,0.00000553,-0.00000129,-0.00000286,-0.000
 00245,-0.00000243,-0.00000049,0.00000386,0.00000007,0.00001058,-0.0000
 0257,0.00000795,0.00000239,-0.00000203,0.00016453,0.00024708,0.0002272
 1,-0.00009460,0.00011625,-0.00003477,0.00005762,0.00009365,-0.00015328
 ,-0.00013068,0.00030224,0.00003015,-0.00010478,-0.00111672,0.00037388,
 0.00005745,-0.00020289,0.00031846,0.00085957,-0.01481092,-0.00221953,-
 0.00358394,0.02879328,0.00435746,-0.00173858,0.02886441,0.05204406\\-0
 .00073867,-0.00080743,-0.00044633,0.00003657,-0.00083484,-0.00094764,-
 0.00047570,0.00026254,0.00106836,-0.00041254,0.00085089,0.00134119,0.0
 0050233,0.00068490,0.00034645,0.00079998,0.00014682,-0.00061586,-0.001
 29228,-0.00146084,0.00082242,-0.00162215,-0.00073165,-0.00131871,-0.00
 004784,0.00014345,-0.00028990,0.00091638,0.00101415,-0.00063427,0.0003
 1463,0.00007724,0.00024862,0.00061365,-0.00049376,0.00207197,-0.001199
 68,-0.00117640,-0.00029188,0.00015339,-0.00101011,-0.00137371,0.001207
 78,0.00114090,0.00030641,0.00139462,0.00021633,-0.00103916,-0.00136777
 ,-0.00020961,0.00100573,0.00027653,0.00008419,0.00024649,-0.00025389,0
 .00057039,-0.00170151,-0.00009949,0.00006958,-0.00036255,-0.00096393,-
 0.00069383,0.00047687,0.00129632,0.00066764,0.00088601,0.00936856,0.00
 202331,-0.00757535,-0.00967669,-0.00171263,0.00820468,0.00021576,0.000
 18198,0.00012334,0.00051425,-0.00011679,-0.00159038,0.00158979,0.00024
 605,0.00065022,-0.00042415,0.00151671,-0.00001863,-0.00135581,-0.00072
 401,-0.00083750,-0.00006732,0.00173318,0.00023885,0.00156307,-0.000271
 36,-0.00079168,0.00012927,-0.00062739,0.00168010,0.00137081,-0.0003372
 3,-0.00109778,-0.00032261,0.00179427,-0.00015164,-0.00041488,0.0016172
 1,0.00015196,-0.00003432,-0.00046646,0.00164213,-0.00145100,-0.0007033
 0,-0.00056609,-0.00030285,0.00166431,-0.00025175,-0.00131785,-0.000682
 64,-0.00085216,0.00127413,-0.00026546,-0.00112989,0.00134187,-0.000586
 47,-0.00084834,-0.00127588,-0.00088822,-0.00066268,0.00028912,-0.00078
 518,0.00145323,-0.00041529,0.00161756,0.00021560,-0.00006050,-0.000623
 01,0.00160183,-0.00151243,-0.00067687,-0.00060596,0.00133652,-0.000525
 56,-0.00084227,-0.00125803,-0.00095162,-0.00075764,0.00011805,-0.00082
 965,0.00150576,0.00152605,-0.00019436,-0.00061922,0.00021701,-0.000604
 12,0.00161782,-0.00000287,0.00166719,0.00031447\\\@


 NATURE WILL TELL YOU A DIRECT LIE IF SHE CAN.

                                -- CHARLES DARWIN
 Job cpu time:       1 days 14 hours 40 minutes 30.3 seconds.
 File lengths (MBytes):  RWF=   5750 Int=      0 D2E=      0 Chk=     50 Scr=      1
 Normal termination of Gaussian 09 at Tue May  8 21:06:25 2018.
 Read checkpoint file 3.chk
 Write formatted file 3.fchk
 FChkPn:  Coordinates translated and rotated.
 FChkPn:  Coordinates match /B/ after translation and rotation.
