 Entering Gaussian System, Link 0=g09
 Initial command:
 /ihome/crc/build/g09/g09-D.01/TAR/g09/l1.exe "/scratch/slurm-1121019/Gau-297377.inp" -scrdir="/scratch/slurm-1121019/"
 Entering Link 1 = /ihome/crc/build/g09/g09-D.01/TAR/g09/l1.exe PID=    297378.
  
 Copyright (c) 1988,1990,1992,1993,1995,1998,2003,2009,2013,
            Gaussian, Inc.  All Rights Reserved.
  
 This is part of the Gaussian(R) 09 program.  It is based on
 the Gaussian(R) 03 system (copyright 2003, Gaussian, Inc.),
 the Gaussian(R) 98 system (copyright 1998, Gaussian, Inc.),
 the Gaussian(R) 94 system (copyright 1995, Gaussian, Inc.),
 the Gaussian 92(TM) system (copyright 1992, Gaussian, Inc.),
 the Gaussian 90(TM) system (copyright 1990, Gaussian, Inc.),
 the Gaussian 88(TM) system (copyright 1988, Gaussian, Inc.),
 the Gaussian 86(TM) system (copyright 1986, Carnegie Mellon
 University), and the Gaussian 82(TM) system (copyright 1983,
 Carnegie Mellon University). Gaussian is a federally registered
 trademark of Gaussian, Inc.
  
 This software contains proprietary and confidential information,
 including trade secrets, belonging to Gaussian, Inc.
  
 This software is provided under written license and may be
 used, copied, transmitted, or stored only in accord with that
 written license.
  
 The following legend is applicable only to US Government
 contracts under FAR:
  
                    RESTRICTED RIGHTS LEGEND
  
 Use, reproduction and disclosure by the US Government is
 subject to restrictions as set forth in subparagraphs (a)
 and (c) of the Commercial Computer Software - Restricted
 Rights clause in FAR 52.227-19.
  
 Gaussian, Inc.
 340 Quinnipiac St., Bldg. 40, Wallingford CT 06492
  
  
 ---------------------------------------------------------------
 Warning -- This program may not be used in any manner that
 competes with the business of Gaussian, Inc. or will provide
 assistance to any competitor of Gaussian, Inc.  The licensee
 of this program is prohibited from giving any competitor of
 Gaussian, Inc. access to this program.  By using this program,
 the user acknowledges that Gaussian, Inc. is engaged in the
 business of creating and licensing software in the field of
 computational chemistry and represents and warrants to the
 licensee that it is not a competitor of Gaussian, Inc. and that
 it will not use this program in any manner prohibited above.
 ---------------------------------------------------------------
  

 Cite this work as:
 Gaussian 09, Revision D.01,
 M. J. Frisch, G. W. Trucks, H. B. Schlegel, G. E. Scuseria, 
 M. A. Robb, J. R. Cheeseman, G. Scalmani, V. Barone, B. Mennucci, 
 G. A. Petersson, H. Nakatsuji, M. Caricato, X. Li, H. P. Hratchian, 
 A. F. Izmaylov, J. Bloino, G. Zheng, J. L. Sonnenberg, M. Hada, 
 M. Ehara, K. Toyota, R. Fukuda, J. Hasegawa, M. Ishida, T. Nakajima, 
 Y. Honda, O. Kitao, H. Nakai, T. Vreven, J. A. Montgomery, Jr., 
 J. E. Peralta, F. Ogliaro, M. Bearpark, J. J. Heyd, E. Brothers, 
 K. N. Kudin, V. N. Staroverov, T. Keith, R. Kobayashi, J. Normand, 
 K. Raghavachari, A. Rendell, J. C. Burant, S. S. Iyengar, J. Tomasi, 
 M. Cossi, N. Rega, J. M. Millam, M. Klene, J. E. Knox, J. B. Cross, 
 V. Bakken, C. Adamo, J. Jaramillo, R. Gomperts, R. E. Stratmann, 
 O. Yazyev, A. J. Austin, R. Cammi, C. Pomelli, J. W. Ochterski, 
 R. L. Martin, K. Morokuma, V. G. Zakrzewski, G. A. Voth, 
 P. Salvador, J. J. Dannenberg, S. Dapprich, A. D. Daniels, 
 O. Farkas, J. B. Foresman, J. V. Ortiz, J. Cioslowski, 
 and D. J. Fox, Gaussian, Inc., Wallingford CT, 2013.
 
 ******************************************
 Gaussian 09:  EM64L-G09RevD.01 24-Apr-2013
                 8-May-2018 
 ******************************************
 %NProc=4
 Will use up to    4 processors via shared memory.
 %Mem=2GB
 %chk=1.chk
 ----------------------------------------------------------------------
 #p freq m062x/6-311+g(d,p) scrf=(smd,solvent=chloroform) Geom=Checkpoi
 nt pop=nbo
 ----------------------------------------------------------------------
 1/10=4,29=2,30=1,38=1/1,3;
 2/12=2,40=1/2;
 3/5=4,6=6,7=111,11=2,14=-4,16=1,25=1,30=1,70=32201,71=2,72=7,74=-55,140=1/1,2,3;
 4//1;
 5/5=2,38=5,53=7,98=1/2;
 8/6=4,10=90,11=11/1;
 11/6=1,8=1,9=11,15=111,16=1/1,2,10;
 10/6=1/2;
 6/7=2,8=2,9=2,10=2,18=1,28=1,40=1/1,7;
 7/8=1,10=1,25=1/1,2,3,16;
 1/10=4,30=1/3;
 99//99;
 Leave Link    1 at Tue May  8 03:04:06 2018, MaxMem=   268435456 cpu:         0.1
 (Enter /ihome/crc/build/g09/g09-D.01/TAR/g09/l101.exe)
 -----
 1.g09
 -----
 Structure from the checkpoint file:  "1.chk"
 Charge =  0 Multiplicity = 1
 Redundant internal coordinates found in file.
 C,0,-2.3898810045,0.7677406689,-0.0802778268
 C,0,-3.550961563,0.0006266105,-0.0410751473
 C,0,-3.4701848971,-1.3895178851,0.0328388496
 C,0,-2.2256056425,-2.0214293532,0.0680261185
 C,0,-1.143565184,0.134604307,-0.0450255832
 C,0,-1.0616936351,-1.2633838124,0.0293066824
 H,0,-2.4589724078,1.8486548107,-0.1377554509
 H,0,-4.5192669841,0.4908504403,-0.0683753844
 H,0,-4.3795735134,-1.9831605151,0.0631618492
 H,0,-2.1632972078,-3.1040587699,0.1255907557
 H,0,-0.0872546544,-1.7411662827,0.0559540547
 C,0,0.1456333514,0.8642647349,-0.0820822503
 O,0,1.2314560129,0.3741477513,-0.0547792897
 Cl,0,0.0309925102,2.6600752317,-0.1777262226
 Recover connectivity data from disk.
 NAtoms=     14 NQM=       14 NQMF=       0 NMMI=      0 NMMIF=      0
                NMic=       0 NMicF=      0.
                    Isotopes and Nuclear Properties:
 (Nuclear quadrupole moments (NQMom) in fm**2, nuclear magnetic moments (NMagM)
  in nuclear magnetons)

  Atom         1           2           3           4           5           6           7           8           9          10
 IAtWgt=          12          12          12          12          12          12           1           1           1           1
 AtmWgt=  12.0000000  12.0000000  12.0000000  12.0000000  12.0000000  12.0000000   1.0078250   1.0078250   1.0078250   1.0078250
 NucSpn=           0           0           0           0           0           0           1           1           1           1
 AtZEff=  -3.6000000  -3.6000000  -3.6000000  -3.6000000  -3.6000000  -3.6000000  -1.0000000  -1.0000000  -1.0000000  -1.0000000
 NQMom=    0.0000000   0.0000000   0.0000000   0.0000000   0.0000000   0.0000000   0.0000000   0.0000000   0.0000000   0.0000000
 NMagM=    0.0000000   0.0000000   0.0000000   0.0000000   0.0000000   0.0000000   2.7928460   2.7928460   2.7928460   2.7928460
 AtZNuc=   6.0000000   6.0000000   6.0000000   6.0000000   6.0000000   6.0000000   1.0000000   1.0000000   1.0000000   1.0000000

  Atom        11          12          13          14
 IAtWgt=           1          12          16          35
 AtmWgt=   1.0078250  12.0000000  15.9949146  34.9688527
 NucSpn=           1           0           0           3
 AtZEff=  -1.0000000  -3.6000000  -5.6000000 -14.2400000
 NQMom=    0.0000000   0.0000000   0.0000000  -8.1650000
 NMagM=    2.7928460   0.0000000   0.0000000   0.8218740
 AtZNuc=   1.0000000   6.0000000   8.0000000  17.0000000
 Leave Link  101 at Tue May  8 03:04:07 2018, MaxMem=   268435456 cpu:         0.3
 (Enter /ihome/crc/build/g09/g09-D.01/TAR/g09/l103.exe)

 GradGradGradGradGradGradGradGradGradGradGradGradGradGradGradGradGradGrad
 Berny optimization.
 Initialization pass.
                           ----------------------------
                           !    Initial Parameters    !
                           ! (Angstroms and Degrees)  !
 --------------------------                            --------------------------
 ! Name  Definition              Value          Derivative Info.                !
 --------------------------------------------------------------------------------
 ! R1    R(1,2)                  1.3922         calculate D2E/DX2 analytically  !
 ! R2    R(1,5)                  1.3984         calculate D2E/DX2 analytically  !
 ! R3    R(1,7)                  1.0846         calculate D2E/DX2 analytically  !
 ! R4    R(2,3)                  1.3944         calculate D2E/DX2 analytically  !
 ! R5    R(2,8)                  1.0857         calculate D2E/DX2 analytically  !
 ! R6    R(3,4)                  1.3963         calculate D2E/DX2 analytically  !
 ! R7    R(3,9)                  1.0864         calculate D2E/DX2 analytically  !
 ! R8    R(4,6)                  1.3895         calculate D2E/DX2 analytically  !
 ! R9    R(4,10)                 1.0859         calculate D2E/DX2 analytically  !
 ! R10   R(5,6)                  1.4024         calculate D2E/DX2 analytically  !
 ! R11   R(5,12)                 1.4818         calculate D2E/DX2 analytically  !
 ! R12   R(6,11)                 1.0856         calculate D2E/DX2 analytically  !
 ! R13   R(12,13)                1.1916         calculate D2E/DX2 analytically  !
 ! R14   R(12,14)                1.802          calculate D2E/DX2 analytically  !
 ! A1    A(2,1,5)              119.5468         calculate D2E/DX2 analytically  !
 ! A2    A(2,1,7)              119.8344         calculate D2E/DX2 analytically  !
 ! A3    A(5,1,7)              120.6188         calculate D2E/DX2 analytically  !
 ! A4    A(1,2,3)              120.1658         calculate D2E/DX2 analytically  !
 ! A5    A(1,2,8)              119.626          calculate D2E/DX2 analytically  !
 ! A6    A(3,2,8)              120.2082         calculate D2E/DX2 analytically  !
 ! A7    A(2,3,4)              120.2749         calculate D2E/DX2 analytically  !
 ! A8    A(2,3,9)              119.8495         calculate D2E/DX2 analytically  !
 ! A9    A(4,3,9)              119.8756         calculate D2E/DX2 analytically  !
 ! A10   A(3,4,6)              119.9361         calculate D2E/DX2 analytically  !
 ! A11   A(3,4,10)             120.2433         calculate D2E/DX2 analytically  !
 ! A12   A(6,4,10)             119.8206         calculate D2E/DX2 analytically  !
 ! A13   A(1,5,6)              120.3135         calculate D2E/DX2 analytically  !
 ! A14   A(1,5,12)             123.4929         calculate D2E/DX2 analytically  !
 ! A15   A(6,5,12)             116.1936         calculate D2E/DX2 analytically  !
 ! A16   A(4,6,5)              119.763          calculate D2E/DX2 analytically  !
 ! A17   A(4,6,11)             120.7356         calculate D2E/DX2 analytically  !
 ! A18   A(5,6,11)             119.5014         calculate D2E/DX2 analytically  !
 ! A19   A(5,12,13)            126.1328         calculate D2E/DX2 analytically  !
 ! A20   A(5,12,14)            115.893          calculate D2E/DX2 analytically  !
 ! A21   A(13,12,14)           117.9741         calculate D2E/DX2 analytically  !
 ! D1    D(5,1,2,3)              0.0001         calculate D2E/DX2 analytically  !
 ! D2    D(5,1,2,8)           -179.9999         calculate D2E/DX2 analytically  !
 ! D3    D(7,1,2,3)           -179.9998         calculate D2E/DX2 analytically  !
 ! D4    D(7,1,2,8)              0.0002         calculate D2E/DX2 analytically  !
 ! D5    D(2,1,5,6)             -0.0001         calculate D2E/DX2 analytically  !
 ! D6    D(2,1,5,12)           179.9995         calculate D2E/DX2 analytically  !
 ! D7    D(7,1,5,6)            179.9998         calculate D2E/DX2 analytically  !
 ! D8    D(7,1,5,12)            -0.0006         calculate D2E/DX2 analytically  !
 ! D9    D(1,2,3,4)              0.0            calculate D2E/DX2 analytically  !
 ! D10   D(1,2,3,9)           -180.0            calculate D2E/DX2 analytically  !
 ! D11   D(8,2,3,4)           -179.9999         calculate D2E/DX2 analytically  !
 ! D12   D(8,2,3,9)              0.0            calculate D2E/DX2 analytically  !
 ! D13   D(2,3,4,6)             -0.0001         calculate D2E/DX2 analytically  !
 ! D14   D(2,3,4,10)           179.9999         calculate D2E/DX2 analytically  !
 ! D15   D(9,3,4,6)            179.9999         calculate D2E/DX2 analytically  !
 ! D16   D(9,3,4,10)            -0.0001         calculate D2E/DX2 analytically  !
 ! D17   D(3,4,6,5)              0.0001         calculate D2E/DX2 analytically  !
 ! D18   D(3,4,6,11)          -179.9999         calculate D2E/DX2 analytically  !
 ! D19   D(10,4,6,5)          -179.9999         calculate D2E/DX2 analytically  !
 ! D20   D(10,4,6,11)            0.0001         calculate D2E/DX2 analytically  !
 ! D21   D(1,5,6,4)              0.0            calculate D2E/DX2 analytically  !
 ! D22   D(1,5,6,11)          -180.0            calculate D2E/DX2 analytically  !
 ! D23   D(12,5,6,4)          -179.9996         calculate D2E/DX2 analytically  !
 ! D24   D(12,5,6,11)            0.0004         calculate D2E/DX2 analytically  !
 ! D25   D(1,5,12,13)         -179.9914         calculate D2E/DX2 analytically  !
 ! D26   D(1,5,12,14)           -0.0048         calculate D2E/DX2 analytically  !
 ! D27   D(6,5,12,13)            0.0082         calculate D2E/DX2 analytically  !
 ! D28   D(6,5,12,14)          179.9948         calculate D2E/DX2 analytically  !
 --------------------------------------------------------------------------------
 Trust Radius=3.00D-01 FncErr=1.00D-07 GrdErr=1.00D-07
 Number of steps in this run=      2 maximum allowed number of steps=      2.
 GradGradGradGradGradGradGradGradGradGradGradGradGradGradGradGradGradGrad

 Leave Link  103 at Tue May  8 03:04:07 2018, MaxMem=   268435456 cpu:         0.0
 (Enter /ihome/crc/build/g09/g09-D.01/TAR/g09/l202.exe)
                          Input orientation:                          
 ---------------------------------------------------------------------
 Center     Atomic      Atomic             Coordinates (Angstroms)
 Number     Number       Type             X           Y           Z
 ---------------------------------------------------------------------
      1          6           0       -2.389881    0.767741   -0.080278
      2          6           0       -3.550962    0.000627   -0.041075
      3          6           0       -3.470185   -1.389518    0.032839
      4          6           0       -2.225606   -2.021429    0.068026
      5          6           0       -1.143565    0.134604   -0.045026
      6          6           0       -1.061694   -1.263384    0.029307
      7          1           0       -2.458972    1.848655   -0.137755
      8          1           0       -4.519267    0.490850   -0.068375
      9          1           0       -4.379574   -1.983161    0.063162
     10          1           0       -2.163297   -3.104059    0.125591
     11          1           0       -0.087255   -1.741166    0.055954
     12          6           0        0.145633    0.864265   -0.082082
     13          8           0        1.231456    0.374148   -0.054779
     14         17           0        0.030993    2.660075   -0.177726
 ---------------------------------------------------------------------
                    Distance matrix (angstroms):
                    1          2          3          4          5
     1  C    0.000000
     2  C    1.392160   0.000000
     3  C    2.415288   1.394450   0.000000
     4  C    2.797937   2.420162   1.396255   0.000000
     5  C    1.398359   2.411125   2.782476   2.414969   0.000000
     6  C    2.429312   2.792692   2.411794   1.389541   1.402355
     7  H    1.084644   2.148720   3.396677   3.882571   2.162606
     8  H    2.147346   1.085670   2.155598   3.404561   3.394528
     9  H    3.398074   2.152411   1.086425   2.154313   3.868899
    10  H    3.883884   3.404770   2.157825   1.085948   3.399691
    11  H    3.408117   3.878211   3.401236   2.156673   2.155111
    12  C    2.537352   3.796362   4.262263   3.737986   1.481827
    13  O    3.642753   4.797002   5.022312   4.207748   2.387091
    14  Cl   3.074257   4.463377   5.357405   5.202799   2.788404
                    6          7          8          9         10
     6  C    0.000000
     7  H    3.415418   0.000000
     8  H    3.878362   2.468453   0.000000
     9  H    3.395225   4.290907   2.481440   0.000000
    10  H    2.147297   4.968516   4.302510   2.484389   0.000000
    11  H    1.085595   4.306900   4.963878   4.299141   2.484407
    12  C    2.448864   2.784977   4.679842   5.348497   4.595855
    13  O    2.819063   3.974961   5.751923   6.087238   4.863620
    14  Cl   4.078033   2.619146   5.042059   6.408647   6.175123
                   11         12         13         14
    11  H    0.000000
    12  C    2.619458   0.000000
    13  O    2.495158   1.191625   0.000000
    14  Cl   4.409027   1.802006   2.584897   0.000000
 Stoichiometry    C7H5ClO
 Framework group  C1[X(C7H5ClO)]
 Deg. of freedom    36
 Full point group                 C1      NOp   1
 RotChk:  IX=0 Diff= 3.89D-16
 Largest Abelian subgroup         C1      NOp   1
 Largest concise Abelian subgroup C1      NOp   1
                         Standard orientation:                         
 ---------------------------------------------------------------------
 Center     Atomic      Atomic             Coordinates (Angstroms)
 Number     Number       Type             X           Y           Z
 ---------------------------------------------------------------------
      1          6           0        0.570022   -1.134275    0.000037
      2          6           0        1.935166   -1.407206   -0.000007
      3          6           0        2.858641   -0.362369   -0.000035
      4          6           0        2.421307    0.963627   -0.000018
      5          6           0        0.132320    0.193815    0.000051
      6          6           0        1.060552    1.244997    0.000023
      7          1           0       -0.143572   -1.951120    0.000061
      8          1           0        2.276418   -2.437850   -0.000018
      9          1           0        3.922791   -0.581239   -0.000069
     10          1           0        3.140925    1.776912   -0.000038
     11          1           0        0.706169    2.271121    0.000035
     12          6           0       -1.297314    0.583633    0.000086
     13          8           0       -1.722039    1.696997   -0.000046
     14         17           0       -2.482976   -0.773361   -0.000025
 ---------------------------------------------------------------------
 Rotational constants (GHZ):      3.1474199      0.9284597      0.7169624
 Leave Link  202 at Tue May  8 03:04:07 2018, MaxMem=   268435456 cpu:         0.0
 (Enter /ihome/crc/build/g09/g09-D.01/TAR/g09/l301.exe)
 Standard basis: 6-311+G(d,p) (5D, 7F)
 Ernie: Thresh=  0.10000D-02 Tol=  0.10000D-05 Strict=F.
 There are   245 symmetry adapted cartesian basis functions of A   symmetry.
 There are   236 symmetry adapted basis functions of A   symmetry.
   236 basis functions,   381 primitive gaussians,   245 cartesian basis functions
    36 alpha electrons       36 beta electrons
       nuclear repulsion energy       461.0666510988 Hartrees.
 IExCor= 4336 DFT=T Ex+Corr=M062X ExCW=0 ScaHFX=  0.540000
 ScaDFX=  1.000000  1.000000  1.000000  1.000000 ScalE2=  1.000000  1.000000
 IRadAn=      0 IRanWt=     -1 IRanGd=            0 ICorTp=0 IEmpDi=  4
 NAtoms=   14 NActive=   14 NUniq=   14 SFac= 1.00D+00 NAtFMM=   60 NAOKFM=F Big=F
 Integral buffers will be    131072 words long.
 Raffenetti 2 integral format.
 Two-electron integral symmetry is turned on.
 Force inversion solution in PCM.
 ------------------------------------------------------------------------------
 Polarizable Continuum Model (PCM)
 =================================
 Model                : PCM (using non-symmetric T matrix).
 Atomic radii         : SMD-Coulomb.
 Polarization charges : Total charges.
 Charge compensation  : None.
 Solution method      : Matrix inversion.
 Cavity type          : VdW (van der Waals Surface) (Alpha=1.000).
 Cavity algorithm     : GePol (No added spheres)
                        Default sphere list used, NSphG=   14.
                        Lebedev-Laikov grids with approx.  5.0 points / Ang**2.
                        Smoothing algorithm: Karplus/York (Gamma=1.0000).
                        Polarization charges: spherical gaussians, with
                                              point-specific exponents (IZeta= 3).
                        Self-potential: point-specific (ISelfS= 7).
                        Self-field    : sphere-specific E.n sum rule (ISelfD= 2).
 1st derivatives      : Analytical E(r).r(x)/FMM algorithm (CHGder, D1EAlg=3).
                        Cavity 1st derivative terms included.
 2nd derivatives      : Analytical E(r).r(xy)/FMM algorithm (CHGder, D2EAlg=3).
                        Cavity 2nd derivative terms included.
 Solvent              : Chloroform, Eps=   4.711300 Eps(inf)=   2.090627
 ------------------------------------------------------------------------------
 Spheres list:
 ISph  on   Nord     Re0    Alpha      Xe            Ye            Ze
    1   C      1    1.8500  1.000      0.570022     -1.134275      0.000037
    2   C      2    1.8500  1.000      1.935166     -1.407206     -0.000007
    3   C      3    1.8500  1.000      2.858641     -0.362369     -0.000035
    4   C      4    1.8500  1.000      2.421307      0.963627     -0.000018
    5   C      5    1.8500  1.000      0.132320      0.193815      0.000051
    6   C      6    1.8500  1.000      1.060552      1.244997      0.000023
    7   H      7    1.2000  1.000     -0.143572     -1.951120      0.000061
    8   H      8    1.2000  1.000      2.276418     -2.437850     -0.000018
    9   H      9    1.2000  1.000      3.922791     -0.581239     -0.000069
   10   H     10    1.2000  1.000      3.140925      1.776912     -0.000038
   11   H     11    1.2000  1.000      0.706169      2.271121      0.000035
   12   C     12    1.8500  1.000     -1.297314      0.583633      0.000086
   13   O     13    2.0240  1.000     -1.722039      1.696997     -0.000046
   14  Cl     14    2.3800  1.000     -2.482976     -0.773361     -0.000025
 ------------------------------------------------------------------------------
 GePol: Number of generator spheres                  =      14
 GePol: Total number of spheres                      =      14
 GePol: Number of exposed spheres                    =      14 (100.00%)
 GePol: Number of points                             =    1399
 GePol: Average weight of points                     =       0.12
 GePol: Minimum weight of points                     =   0.35D-07
 GePol: Maximum weight of points                     =    0.18790
 GePol: Number of points with low weight             =      45
 GePol: Fraction of low-weight points (<1% of avg)   =       3.22%
 GePol: Cavity surface area                          =    172.668 Ang**2
 GePol: Cavity volume                                =    161.591 Ang**3
 ------------------------------------------------------------------------------
 Atomic radii for non-electrostatic terms: SMD-CDS.
 ------------------------------------------------------------------------------
 PCM non-electrostatic energy =        -0.0053302206 Hartrees.
 Nuclear repulsion after PCM non-electrostatic terms =      461.0613208783 Hartrees.
 Leave Link  301 at Tue May  8 03:04:07 2018, MaxMem=   268435456 cpu:         0.2
 (Enter /ihome/crc/build/g09/g09-D.01/TAR/g09/l302.exe)
 NPDir=0 NMtPBC=     1 NCelOv=     1 NCel=       1 NClECP=     1 NCelD=      1
         NCelK=      1 NCelE2=     1 NClLst=     1 CellRange=     0.0.
 One-electron integrals computed using PRISM.
 NBasis=   236 RedAO= T EigKep=  2.82D-06  NBF=   236
 NBsUse=   236 1.00D-06 EigRej= -1.00D+00 NBFU=   236
 Precomputing XC quadrature grid using
 IXCGrd= 4 IRadAn=           0 IRanWt=          -1 IRanGd=           0 AccXCQ= 0.00D+00.
 Generated NRdTot=       0 NPtTot=           0 NUsed=           0 NTot=          32
 NSgBfM=   245   245   245   245   245 MxSgAt=    14 MxSgA2=    14.
 Leave Link  302 at Tue May  8 03:04:07 2018, MaxMem=   268435456 cpu:         0.6
 (Enter /ihome/crc/build/g09/g09-D.01/TAR/g09/l303.exe)
 DipDrv:  MaxL=1.
 Leave Link  303 at Tue May  8 03:04:07 2018, MaxMem=   268435456 cpu:         0.1
 (Enter /ihome/crc/build/g09/g09-D.01/TAR/g09/l401.exe)
 ExpMin= 4.38D-02 ExpMax= 1.06D+05 ExpMxC= 3.62D+03 IAcc=2 IRadAn=         4 AccDes= 0.00D+00
 Harris functional with IExCor= 1009 and IRadAn=       4 diagonalized for initial guess.
 HarFok:  IExCor= 1009 AccDes= 0.00D+00 IRadAn=         4 IDoV= 1 UseB2=F ITyADJ=14
 ICtDFT=  3500011 ScaDFX=  1.000000  1.000000  1.000000  1.000000
 FoFCou: FMM=F IPFlag=           0 FMFlag=      100000 FMFlg1=           0
         NFxFlg=           0 DoJE=T BraDBF=F KetDBF=T FulRan=T
         wScrn=  0.000000 ICntrl=     500 IOpCl=  0 I1Cent=   200000004 NGrid=           0
         NMat0=    1 NMatS0=      1 NMatT0=    0 NMatD0=    1 NMtDS0=    0 NMtDT0=    0
 Petite list used in FoFCou.
 Harris En= -804.743510337065    
 JPrj=0 DoOrth=F DoCkMO=F.
 Leave Link  401 at Tue May  8 03:04:08 2018, MaxMem=   268435456 cpu:         2.4
 (Enter /ihome/crc/build/g09/g09-D.01/TAR/g09/l502.exe)
 Closed shell SCF:
 Using DIIS extrapolation, IDIIS=  1040.
 Integral symmetry usage will be decided dynamically.
 IVT=      201910 IEndB=      201910 NGot=   268435456 MDV=   268310457
 LenX=   268310457 LenY=   268249991
 Requested convergence on RMS density matrix=1.00D-08 within 128 cycles.
 Requested convergence on MAX density matrix=1.00D-06.
 Requested convergence on             energy=1.00D-06.
 No special actions if energy rises.
 Fock matrices will be formed incrementally for  20 cycles.

 Cycle   1  Pass 1  IDiag  1:
 FoFJK:  IHMeth= 1 ICntrl=       0 DoSepK=F KAlg= 0 I1Cent=   0 FoldK=F
 IRaf= 920000000 NMat=   1 IRICut=       1 DoRegI=T DoRafI=F ISym2E= 0.
 FoFCou: FMM=F IPFlag=           0 FMFlag=      100000 FMFlg1=           0
         NFxFlg=           0 DoJE=F BraDBF=F KetDBF=F FulRan=T
         wScrn=  0.000000 ICntrl=       0 IOpCl=  0 I1Cent=           0 NGrid=           0
         NMat0=    1 NMatS0=      1 NMatT0=    0 NMatD0=    1 NMtDS0=    0 NMtDT0=    0
 Symmetry not used in FoFCou.
 Inv3:  Mode=1 IEnd=     5871603.
 Iteration    1 A*A^-1 deviation from unit magnitude is 6.66D-15 for    790.
 Iteration    1 A*A^-1 deviation from orthogonality  is 3.60D-15 for    893    533.
 Iteration    1 A^-1*A deviation from unit magnitude is 6.11D-15 for    948.
 Iteration    1 A^-1*A deviation from orthogonality  is 2.20D-15 for   1312   1089.
 E= -804.903641083479    
 DIIS: error= 4.24D-02 at cycle   1 NSaved=   1.
 NSaved= 1 IEnMin= 1 EnMin= -804.903641083479     IErMin= 1 ErrMin= 4.24D-02
 ErrMax= 4.24D-02  0.00D+00 EMaxC= 1.00D-01 BMatC= 3.33D-01 BMatP= 3.33D-01
 IDIUse=3 WtCom= 5.76D-01 WtEn= 4.24D-01
 Coeff-Com:  0.100D+01
 Coeff-En:   0.100D+01
 Coeff:      0.100D+01
 Gap=     0.491 Goal=   None    Shift=    0.000
 GapD=    0.491 DampG=2.000 DampE=0.500 DampFc=1.0000 IDamp=-1.
 RMSDP=1.52D-02 MaxDP=1.04D+00              OVMax= 2.62D-01

 Cycle   2  Pass 1  IDiag  1:
 RMSU=  1.35D-02    CP:  8.67D-01
 E= -804.848563968951     Delta-E=        0.055077114528 Rises=F Damp=F
 DIIS: error= 5.17D-02 at cycle   2 NSaved=   2.
 NSaved= 2 IEnMin= 1 EnMin= -804.903641083479     IErMin= 1 ErrMin= 4.24D-02
 ErrMax= 5.17D-02  0.00D+00 EMaxC= 1.00D-01 BMatC= 3.68D-01 BMatP= 3.33D-01
 IDIUse=2 WtCom= 0.00D+00 WtEn= 1.00D+00
 Coeff-En:   0.553D+00 0.447D+00
 Coeff:      0.553D+00 0.447D+00
 Gap=     0.263 Goal=   None    Shift=    0.000
 RMSDP=7.18D-03 MaxDP=2.72D-01 DE= 5.51D-02 OVMax= 1.58D-01

 Cycle   3  Pass 1  IDiag  1:
 RMSU=  5.39D-03    CP:  9.03D-01  6.77D-01
 E= -805.131243386863     Delta-E=       -0.282679417912 Rises=F Damp=F
 DIIS: error= 1.02D-02 at cycle   3 NSaved=   3.
 NSaved= 3 IEnMin= 3 EnMin= -805.131243386863     IErMin= 3 ErrMin= 1.02D-02
 ErrMax= 1.02D-02  0.00D+00 EMaxC= 1.00D-01 BMatC= 1.53D-02 BMatP= 3.33D-01
 IDIUse=3 WtCom= 8.98D-01 WtEn= 1.02D-01
 Coeff-Com:  0.133D+00 0.188D+00 0.678D+00
 Coeff-En:   0.000D+00 0.000D+00 0.100D+01
 Coeff:      0.120D+00 0.169D+00 0.711D+00
 Gap=     0.282 Goal=   None    Shift=    0.000
 RMSDP=3.03D-03 MaxDP=2.14D-01 DE=-2.83D-01 OVMax= 3.78D-02

 Cycle   4  Pass 1  IDiag  1:
 RMSU=  2.14D-03    CP:  8.72D-01  6.07D-01  8.07D-01
 E= -805.140406662399     Delta-E=       -0.009163275536 Rises=F Damp=F
 DIIS: error= 4.09D-03 at cycle   4 NSaved=   4.
 NSaved= 4 IEnMin= 4 EnMin= -805.140406662399     IErMin= 4 ErrMin= 4.09D-03
 ErrMax= 4.09D-03  0.00D+00 EMaxC= 1.00D-01 BMatC= 3.62D-03 BMatP= 1.53D-02
 IDIUse=3 WtCom= 9.59D-01 WtEn= 4.09D-02
 Coeff-Com:  0.456D-02 0.233D-01 0.349D+00 0.623D+00
 Coeff-En:   0.000D+00 0.000D+00 0.187D+00 0.813D+00
 Coeff:      0.437D-02 0.224D-01 0.342D+00 0.631D+00
 Gap=     0.276 Goal=   None    Shift=    0.000
 RMSDP=9.55D-04 MaxDP=7.25D-02 DE=-9.16D-03 OVMax= 1.20D-02

 Cycle   5  Pass 1  IDiag  1:
 RMSU=  5.79D-04    CP:  8.68D-01  6.31D-01  8.63D-01  7.28D-01
 E= -805.143437765536     Delta-E=       -0.003031103137 Rises=F Damp=F
 DIIS: error= 3.63D-04 at cycle   5 NSaved=   5.
 NSaved= 5 IEnMin= 5 EnMin= -805.143437765536     IErMin= 5 ErrMin= 3.63D-04
 ErrMax= 3.63D-04  0.00D+00 EMaxC= 1.00D-01 BMatC= 3.32D-05 BMatP= 3.62D-03
 IDIUse=3 WtCom= 9.96D-01 WtEn= 3.63D-03
 Coeff-Com: -0.308D-02-0.191D-02 0.606D-01 0.155D+00 0.789D+00
 Coeff-En:   0.000D+00 0.000D+00 0.000D+00 0.000D+00 0.100D+01
 Coeff:     -0.307D-02-0.191D-02 0.603D-01 0.155D+00 0.790D+00
 Gap=     0.277 Goal=   None    Shift=    0.000
 RMSDP=1.55D-04 MaxDP=7.32D-03 DE=-3.03D-03 OVMax= 2.77D-03

 Cycle   6  Pass 1  IDiag  1:
 RMSU=  1.16D-04    CP:  8.69D-01  6.27D-01  8.71D-01  7.45D-01  1.03D+00
 E= -805.143478404160     Delta-E=       -0.000040638624 Rises=F Damp=F
 DIIS: error= 2.32D-04 at cycle   6 NSaved=   6.
 NSaved= 6 IEnMin= 6 EnMin= -805.143478404160     IErMin= 6 ErrMin= 2.32D-04
 ErrMax= 2.32D-04  0.00D+00 EMaxC= 1.00D-01 BMatC= 5.06D-06 BMatP= 3.32D-05
 IDIUse=3 WtCom= 9.98D-01 WtEn= 2.32D-03
 Coeff-Com: -0.135D-02-0.295D-02-0.206D-02 0.710D-02 0.244D+00 0.755D+00
 Coeff-En:   0.000D+00 0.000D+00 0.000D+00 0.000D+00 0.000D+00 0.100D+01
 Coeff:     -0.135D-02-0.294D-02-0.206D-02 0.709D-02 0.243D+00 0.756D+00
 Gap=     0.277 Goal=   None    Shift=    0.000
 RMSDP=7.10D-05 MaxDP=3.91D-03 DE=-4.06D-05 OVMax= 1.28D-03

 Cycle   7  Pass 1  IDiag  1:
 RMSU=  4.86D-05    CP:  8.69D-01  6.24D-01  8.72D-01  7.52D-01  1.08D+00
                    CP:  1.15D+00
 E= -805.143485126083     Delta-E=       -0.000006721923 Rises=F Damp=F
 DIIS: error= 1.01D-04 at cycle   7 NSaved=   7.
 NSaved= 7 IEnMin= 7 EnMin= -805.143485126083     IErMin= 7 ErrMin= 1.01D-04
 ErrMax= 1.01D-04  0.00D+00 EMaxC= 1.00D-01 BMatC= 1.18D-06 BMatP= 5.06D-06
 IDIUse=3 WtCom= 9.99D-01 WtEn= 1.01D-03
 Coeff-Com:  0.113D-04-0.114D-02-0.111D-01-0.266D-01-0.409D-01 0.320D+00
 Coeff-Com:  0.760D+00
 Coeff-En:   0.000D+00 0.000D+00 0.000D+00 0.000D+00 0.000D+00 0.000D+00
 Coeff-En:   0.100D+01
 Coeff:      0.113D-04-0.114D-02-0.111D-01-0.266D-01-0.409D-01 0.319D+00
 Coeff:      0.760D+00
 Gap=     0.277 Goal=   None    Shift=    0.000
 RMSDP=4.82D-05 MaxDP=2.69D-03 DE=-6.72D-06 OVMax= 6.84D-04

 Cycle   8  Pass 1  IDiag  1:
 RMSU=  2.07D-05    CP:  8.70D-01  6.22D-01  8.70D-01  7.56D-01  1.12D+00
                    CP:  1.25D+00  1.35D+00
 E= -805.143486914562     Delta-E=       -0.000001788479 Rises=F Damp=F
 DIIS: error= 3.49D-05 at cycle   8 NSaved=   8.
 NSaved= 8 IEnMin= 8 EnMin= -805.143486914562     IErMin= 8 ErrMin= 3.49D-05
 ErrMax= 3.49D-05  0.00D+00 EMaxC= 1.00D-01 BMatC= 1.06D-07 BMatP= 1.18D-06
 IDIUse=1 WtCom= 1.00D+00 WtEn= 0.00D+00
 Coeff-Com:  0.123D-03-0.994D-04-0.250D-02-0.882D-02-0.349D-01-0.294D-02
 Coeff-Com:  0.209D+00 0.841D+00
 Coeff:      0.123D-03-0.994D-04-0.250D-02-0.882D-02-0.349D-01-0.294D-02
 Coeff:      0.209D+00 0.841D+00
 Gap=     0.277 Goal=   None    Shift=    0.000
 RMSDP=1.20D-05 MaxDP=9.26D-04 DE=-1.79D-06 OVMax= 2.71D-04

 Cycle   9  Pass 1  IDiag  1:
 RMSU=  6.65D-06    CP:  8.70D-01  6.22D-01  8.71D-01  7.54D-01  1.13D+00
                    CP:  1.28D+00  1.41D+00  1.12D+00
 E= -805.143487084866     Delta-E=       -0.000000170304 Rises=F Damp=F
 DIIS: error= 5.94D-06 at cycle   9 NSaved=   9.
 NSaved= 9 IEnMin= 9 EnMin= -805.143487084866     IErMin= 9 ErrMin= 5.94D-06
 ErrMax= 5.94D-06  0.00D+00 EMaxC= 1.00D-01 BMatC= 1.48D-08 BMatP= 1.06D-07
 IDIUse=1 WtCom= 1.00D+00 WtEn= 0.00D+00
 Coeff-Com:  0.521D-04 0.801D-04 0.235D-03-0.793D-03-0.945D-02-0.364D-01
 Coeff-Com: -0.119D-01 0.324D+00 0.734D+00
 Coeff:      0.521D-04 0.801D-04 0.235D-03-0.793D-03-0.945D-02-0.364D-01
 Coeff:     -0.119D-01 0.324D+00 0.734D+00
 Gap=     0.277 Goal=   None    Shift=    0.000
 RMSDP=7.48D-06 MaxDP=3.53D-04 DE=-1.70D-07 OVMax= 7.92D-05

 Cycle  10  Pass 1  IDiag  1:
 RMSU=  2.09D-06    CP:  8.70D-01  6.22D-01  8.71D-01  7.54D-01  1.14D+00
                    CP:  1.28D+00  1.51D+00  1.22D+00  1.01D+00
 E= -805.143487104626     Delta-E=       -0.000000019760 Rises=F Damp=F
 DIIS: error= 1.89D-06 at cycle  10 NSaved=  10.
 NSaved=10 IEnMin=10 EnMin= -805.143487104626     IErMin=10 ErrMin= 1.89D-06
 ErrMax= 1.89D-06  0.00D+00 EMaxC= 1.00D-01 BMatC= 1.02D-09 BMatP= 1.48D-08
 IDIUse=1 WtCom= 1.00D+00 WtEn= 0.00D+00
 Coeff-Com:  0.286D-05 0.358D-04 0.425D-03 0.776D-03 0.507D-03-0.968D-02
 Coeff-Com: -0.259D-01 0.169D-01 0.229D+00 0.788D+00
 Coeff:      0.286D-05 0.358D-04 0.425D-03 0.776D-03 0.507D-03-0.968D-02
 Coeff:     -0.259D-01 0.169D-01 0.229D+00 0.788D+00
 Gap=     0.277 Goal=   None    Shift=    0.000
 RMSDP=1.40D-06 MaxDP=7.29D-05 DE=-1.98D-08 OVMax= 1.53D-05

 Cycle  11  Pass 1  IDiag  1:
 RMSU=  5.37D-07    CP:  8.70D-01  6.22D-01  8.70D-01  7.54D-01  1.14D+00
                    CP:  1.28D+00  1.51D+00  1.26D+00  1.14D+00  9.19D-01
 E= -805.143487105858     Delta-E=       -0.000000001232 Rises=F Damp=F
 DIIS: error= 6.50D-07 at cycle  11 NSaved=  11.
 NSaved=11 IEnMin=11 EnMin= -805.143487105858     IErMin=11 ErrMin= 6.50D-07
 ErrMax= 6.50D-07  0.00D+00 EMaxC= 1.00D-01 BMatC= 7.36D-11 BMatP= 1.02D-09
 IDIUse=1 WtCom= 1.00D+00 WtEn= 0.00D+00
 Coeff-Com: -0.363D-05-0.281D-05 0.529D-04 0.176D-03 0.831D-03 0.239D-02
 Coeff-Com: -0.464D-02-0.279D-01-0.118D-01 0.197D+00 0.844D+00
 Coeff:     -0.363D-05-0.281D-05 0.529D-04 0.176D-03 0.831D-03 0.239D-02
 Coeff:     -0.464D-02-0.279D-01-0.118D-01 0.197D+00 0.844D+00
 Gap=     0.277 Goal=   None    Shift=    0.000
 RMSDP=4.17D-07 MaxDP=3.16D-05 DE=-1.23D-09 OVMax= 4.74D-06

 Cycle  12  Pass 1  IDiag  1:
 RMSU=  1.69D-07    CP:  8.70D-01  6.22D-01  8.70D-01  7.54D-01  1.14D+00
                    CP:  1.28D+00  1.51D+00  1.27D+00  1.17D+00  9.89D-01
                    CP:  9.93D-01
 E= -805.143487105960     Delta-E=       -0.000000000102 Rises=F Damp=F
 DIIS: error= 3.78D-07 at cycle  12 NSaved=  12.
 NSaved=12 IEnMin=12 EnMin= -805.143487105960     IErMin=12 ErrMin= 3.78D-07
 ErrMax= 3.78D-07  0.00D+00 EMaxC= 1.00D-01 BMatC= 7.49D-12 BMatP= 7.36D-11
 IDIUse=1 WtCom= 1.00D+00 WtEn= 0.00D+00
 Coeff-Com: -0.125D-05-0.305D-05-0.104D-04-0.126D-05 0.222D-03 0.132D-02
 Coeff-Com: -0.761D-04-0.906D-02-0.202D-01-0.151D-03 0.253D+00 0.775D+00
 Coeff:     -0.125D-05-0.305D-05-0.104D-04-0.126D-05 0.222D-03 0.132D-02
 Coeff:     -0.761D-04-0.906D-02-0.202D-01-0.151D-03 0.253D+00 0.775D+00
 Gap=     0.277 Goal=   None    Shift=    0.000
 RMSDP=9.51D-08 MaxDP=5.64D-06 DE=-1.02D-10 OVMax= 2.77D-06

 Cycle  13  Pass 1  IDiag  1:
 RMSU=  4.85D-08    CP:  8.70D-01  6.22D-01  8.70D-01  7.54D-01  1.14D+00
                    CP:  1.28D+00  1.51D+00  1.27D+00  1.17D+00  9.92D-01
                    CP:  9.97D-01  1.25D+00
 E= -805.143487105975     Delta-E=       -0.000000000015 Rises=F Damp=F
 DIIS: error= 1.90D-07 at cycle  13 NSaved=  13.
 NSaved=13 IEnMin=13 EnMin= -805.143487105975     IErMin=13 ErrMin= 1.90D-07
 ErrMax= 1.90D-07  0.00D+00 EMaxC= 1.00D-01 BMatC= 1.82D-12 BMatP= 7.49D-12
 IDIUse=1 WtCom= 1.00D+00 WtEn= 0.00D+00
 Coeff-Com:  0.133D-06-0.467D-06-0.103D-04-0.265D-04-0.332D-04 0.842D-04
 Coeff-Com:  0.576D-03 0.151D-02-0.600D-02-0.327D-01-0.441D-01 0.338D+00
 Coeff-Com:  0.743D+00
 Coeff:      0.133D-06-0.467D-06-0.103D-04-0.265D-04-0.332D-04 0.842D-04
 Coeff:      0.576D-03 0.151D-02-0.600D-02-0.327D-01-0.441D-01 0.338D+00
 Coeff:      0.743D+00
 Gap=     0.277 Goal=   None    Shift=    0.000
 RMSDP=3.59D-08 MaxDP=2.04D-06 DE=-1.48D-11 OVMax= 1.09D-06

 Cycle  14  Pass 1  IDiag  1:
 RMSU=  1.62D-08    CP:  8.70D-01  6.22D-01  8.70D-01  7.54D-01  1.14D+00
                    CP:  1.28D+00  1.51D+00  1.27D+00  1.18D+00  9.93D-01
                    CP:  9.92D-01  1.36D+00  1.31D+00
 E= -805.143487105979     Delta-E=       -0.000000000005 Rises=F Damp=F
 DIIS: error= 4.44D-08 at cycle  14 NSaved=  14.
 NSaved=14 IEnMin=14 EnMin= -805.143487105979     IErMin=14 ErrMin= 4.44D-08
 ErrMax= 4.44D-08  0.00D+00 EMaxC= 1.00D-01 BMatC= 9.83D-14 BMatP= 1.82D-12
 IDIUse=1 WtCom= 1.00D+00 WtEn= 0.00D+00
 Coeff-Com:  0.141D-06 0.232D-06-0.138D-05-0.578D-05-0.281D-04-0.120D-03
 Coeff-Com:  0.129D-03 0.133D-02 0.695D-03-0.559D-02-0.417D-01-0.345D-02
 Coeff-Com:  0.118D+00 0.931D+00
 Coeff:      0.141D-06 0.232D-06-0.138D-05-0.578D-05-0.281D-04-0.120D-03
 Coeff:      0.129D-03 0.133D-02 0.695D-03-0.559D-02-0.417D-01-0.345D-02
 Coeff:      0.118D+00 0.931D+00
 Gap=     0.277 Goal=   None    Shift=    0.000
 RMSDP=1.13D-08 MaxDP=6.01D-07 DE=-4.55D-12 OVMax= 3.92D-07

 Cycle  15  Pass 1  IDiag  1:
 RMSU=  5.11D-09    CP:  8.70D-01  6.22D-01  8.70D-01  7.54D-01  1.14D+00
                    CP:  1.28D+00  1.51D+00  1.27D+00  1.18D+00  9.91D-01
                    CP:  9.96D-01  1.39D+00  1.37D+00  1.09D+00
 E= -805.143487105980     Delta-E=       -0.000000000001 Rises=F Damp=F
 DIIS: error= 2.81D-08 at cycle  15 NSaved=  15.
 NSaved=15 IEnMin=15 EnMin= -805.143487105980     IErMin=15 ErrMin= 2.81D-08
 ErrMax= 2.81D-08  0.00D+00 EMaxC= 1.00D-01 BMatC= 2.23D-14 BMatP= 9.83D-14
 IDIUse=1 WtCom= 1.00D+00 WtEn= 0.00D+00
 Coeff-Com:  0.234D-07 0.134D-06 0.711D-06 0.122D-05-0.594D-05-0.536D-04
 Coeff-Com: -0.316D-04 0.263D-03 0.991D-03 0.302D-02-0.984D-02-0.395D-01
 Coeff-Com: -0.527D-01 0.379D+00 0.719D+00
 Coeff:      0.234D-07 0.134D-06 0.711D-06 0.122D-05-0.594D-05-0.536D-04
 Coeff:     -0.316D-04 0.263D-03 0.991D-03 0.302D-02-0.984D-02-0.395D-01
 Coeff:     -0.527D-01 0.379D+00 0.719D+00
 Gap=     0.277 Goal=   None    Shift=    0.000
 RMSDP=4.79D-09 MaxDP=3.10D-07 DE=-6.82D-13 OVMax= 1.69D-07

 Error on total polarization charges =  0.02295
 SCF Done:  E(RM062X) =  -805.143487106     A.U. after   15 cycles
            NFock= 15  Conv=0.48D-08     -V/T= 2.0030
 KE= 8.027715952205D+02 PE=-2.819197104898D+03 EE= 7.502207016935D+02
 SMD-CDS (non-electrostatic) energy       (kcal/mol) =      -3.34
 (included in total energy above)
 Leave Link  502 at Tue May  8 03:04:51 2018, MaxMem=   268435456 cpu:       171.5
 (Enter /ihome/crc/build/g09/g09-D.01/TAR/g09/l801.exe)
 DoSCS=F DFT=T ScalE2(SS,OS)=  1.000000  1.000000
 Range of M.O.s used for correlation:     1   236
 NBasis=   236 NAE=    36 NBE=    36 NFC=     0 NFV=     0
 NROrb=    236 NOA=    36 NOB=    36 NVA=   200 NVB=   200

 **** Warning!!: The largest alpha MO coefficient is  0.17176288D+03

 Leave Link  801 at Tue May  8 03:04:51 2018, MaxMem=   268435456 cpu:         0.1
 (Enter /ihome/crc/build/g09/g09-D.01/TAR/g09/l1101.exe)
 Using compressed storage, NAtomX=    14.
 Will process     15 centers per pass.
 Leave Link 1101 at Tue May  8 03:04:51 2018, MaxMem=   268435456 cpu:         0.5
 (Enter /ihome/crc/build/g09/g09-D.01/TAR/g09/l1102.exe)
 Symmetrizing basis deriv contribution to polar:
 IMax=3 JMax=2 DiffMx= 0.00D+00
 Leave Link 1102 at Tue May  8 03:04:51 2018, MaxMem=   268435456 cpu:         0.1
 (Enter /ihome/crc/build/g09/g09-D.01/TAR/g09/l1110.exe)
 Forming Gx(P) for the SCF density, NAtomX=    14.
 Integral derivatives from FoFJK, PRISM(SPDF).
 Do as many integral derivatives as possible in FoFJK.
 G2DrvN: MDV=     268435240.
 G2DrvN: will do    15 centers at a time, making    1 passes.
 Calling FoFCou, ICntrl=  3107 FMM=F I1Cent=   0 AccDes= 0.00D+00.
 FoFJK:  IHMeth= 1 ICntrl=    3107 DoSepK=F KAlg= 0 I1Cent=   0 FoldK=F
 IRaf=         0 NMat=   1 IRICut=       1 DoRegI=T DoRafI=F ISym2E= 0.
 FoFCou: FMM=F IPFlag=           0 FMFlag=      100000 FMFlg1=           0
         NFxFlg=           0 DoJE=F BraDBF=F KetDBF=F FulRan=T
         wScrn=  0.000000 ICntrl=    3107 IOpCl=  0 I1Cent=           0 NGrid=           0
         NMat0=    1 NMatS0=      1 NMatT0=    0 NMatD0=    1 NMtDS0=    0 NMtDT0=    0
 Symmetry not used in FoFCou.
 NEqPCM:  Using equilibrium solvation (IEInf=0, Eps=   4.7113, EpsInf=   2.0906)
 G2PCM: DoFxE=T DoFxN=T DoGrad=T DoDP/DQ/DG/TGxP=FFFF NFrqRd=   0 IEInf=0 SqF1=F DoCFld=F IF1Alg=4.
 GePol: Maximum number of non-zero 1st derivatives   =     352
 End of G2Drv F.D. properties file   721 does not exist.
 End of G2Drv F.D. properties file   722 does not exist.
 End of G2Drv F.D. properties file   788 does not exist.
 Leave Link 1110 at Tue May  8 03:05:53 2018, MaxMem=   268435456 cpu:       249.0
 (Enter /ihome/crc/build/g09/g09-D.01/TAR/g09/l1002.exe)
 Minotr:  Closed shell wavefunction.
          IDoAtm=11111111111111
 NEqPCM:  Using equilibrium solvation (IEInf=0, Eps=   4.7113, EpsInf=   2.0906)
          Direct CPHF calculation.
          Differentiating once with respect to electric field.
                with respect to dipole field.
          Differentiating once with respect to nuclear coordinates.
          Requested convergence is 1.0D-08 RMS, and 1.0D-07 maximum.
          Secondary convergence is 1.0D-12 RMS, and 1.0D-12 maximum.
          NewPWx=T KeepS1=F KeepF1=F KeepIn=T MapXYZ=F SortEE=F KeepMc=T.
          MDV=     268435076 using IRadAn=       2.
 Generate precomputed XC quadrature information.
          Solving linear equations simultaneously, MaxMat=       0.
 FoFJK:  IHMeth= 1 ICntrl=       0 DoSepK=F KAlg= 0 I1Cent=   0 FoldK=F
 IRaf= 920000000 NMat=  45 IRICut=     112 DoRegI=T DoRafI=T ISym2E= 2.
 FoFCou: FMM=F IPFlag=           0 FMFlag=      100000 FMFlg1=           0
         NFxFlg=           0 DoJE=F BraDBF=F KetDBF=F FulRan=T
         wScrn=  0.000000 ICntrl=       0 IOpCl=  0 I1Cent=           0 NGrid=           0
         NMat0=   45 NMatS0=     45 NMatT0=    0 NMatD0=   45 NMtDS0=    0 NMtDT0=    0
 Integrals replicated using symmetry in FoFCou.
          There are    45 degrees of freedom in the 1st order CPHF.  IDoFFX=6 NUNeed=     3.
     43 vectors produced by pass  0 Test12= 1.60D-14 2.22D-09 XBig12= 8.83D+01 6.12D+00.
 AX will form    43 AO Fock derivatives at one time.
     42 vectors produced by pass  1 Test12= 1.60D-14 2.22D-09 XBig12= 1.20D+01 5.00D-01.
     42 vectors produced by pass  2 Test12= 1.60D-14 2.22D-09 XBig12= 2.37D-01 7.49D-02.
     42 vectors produced by pass  3 Test12= 1.60D-14 2.22D-09 XBig12= 2.12D-03 7.47D-03.
     42 vectors produced by pass  4 Test12= 1.60D-14 2.22D-09 XBig12= 1.88D-05 6.55D-04.
     42 vectors produced by pass  5 Test12= 1.60D-14 2.22D-09 XBig12= 1.38D-07 5.72D-05.
     36 vectors produced by pass  6 Test12= 1.60D-14 2.22D-09 XBig12= 6.69D-10 3.23D-06.
     12 vectors produced by pass  7 Test12= 1.60D-14 2.22D-09 XBig12= 3.43D-12 1.89D-07.
     12 vectors produced by pass  8 Test12= 1.60D-14 2.22D-09 XBig12= 2.62D-13 1.10D-07.
     10 vectors produced by pass  9 Test12= 1.60D-14 2.22D-09 XBig12= 1.69D-14 2.40D-08.
      9 vectors produced by pass 10 Test12= 1.60D-14 2.22D-09 XBig12= 1.18D-15 5.46D-09.
      9 vectors produced by pass 11 Test12= 1.60D-14 2.22D-09 XBig12= 6.91D-16 4.45D-09.
      7 vectors produced by pass 12 Test12= 1.60D-14 2.22D-09 XBig12= 4.46D-16 3.70D-09.
      6 vectors produced by pass 13 Test12= 1.60D-14 2.22D-09 XBig12= 3.32D-16 3.16D-09.
      2 vectors produced by pass 14 Test12= 1.60D-14 2.22D-09 XBig12= 2.11D-16 2.83D-09.
      1 vectors produced by pass 15 Test12= 1.60D-14 2.22D-09 XBig12= 2.58D-16 2.81D-09.
 InvSVY:  IOpt=1 It=  1 EMax= 8.88D-15
 Solved reduced A of dimension   357 with    45 vectors.
 FullF1:  Do perturbations    1 to     3.
 Isotropic polarizability for W=    0.000000      119.49 Bohr**3.
 End of Minotr F.D. properties file   721 does not exist.
 End of Minotr F.D. properties file   722 does not exist.
 End of Minotr F.D. properties file   788 does not exist.
 Leave Link 1002 at Tue May  8 03:08:14 2018, MaxMem=   268435456 cpu:       564.6
 (Enter /ihome/crc/build/g09/g09-D.01/TAR/g09/l601.exe)
 Copying SCF densities to generalized density rwf, IOpCl= 0 IROHF=0.

 **********************************************************************

            Population analysis using the SCF density.

 **********************************************************************

 Orbital symmetries:
       Occupied  (A) (A) (A) (A) (A) (A) (A) (A) (A) (A) (A) (A)
                 (A) (A) (A) (A) (A) (A) (A) (A) (A) (A) (A) (A)
                 (A) (A) (A) (A) (A) (A) (A) (A) (A) (A) (A) (A)
       Virtual   (A) (A) (A) (A) (A) (A) (A) (A) (A) (A) (A) (A)
                 (A) (A) (A) (A) (A) (A) (A) (A) (A) (A) (A) (A)
                 (A) (A) (A) (A) (A) (A) (A) (A) (A) (A) (A) (A)
                 (A) (A) (A) (A) (A) (A) (A) (A) (A) (A) (A) (A)
                 (A) (A) (A) (A) (A) (A) (A) (A) (A) (A) (A) (A)
                 (A) (A) (A) (A) (A) (A) (A) (A) (A) (A) (A) (A)
                 (A) (A) (A) (A) (A) (A) (A) (A) (A) (A) (A) (A)
                 (A) (A) (A) (A) (A) (A) (A) (A) (A) (A) (A) (A)
                 (A) (A) (A) (A) (A) (A) (A) (A) (A) (A) (A) (A)
                 (A) (A) (A) (A) (A) (A) (A) (A) (A) (A) (A) (A)
                 (A) (A) (A) (A) (A) (A) (A) (A) (A) (A) (A) (A)
                 (A) (A) (A) (A) (A) (A) (A) (A) (A) (A) (A) (A)
                 (A) (A) (A) (A) (A) (A) (A) (A) (A) (A) (A) (A)
                 (A) (A) (A) (A) (A) (A) (A) (A) (A) (A) (A) (A)
                 (A) (A) (A) (A) (A) (A) (A) (A) (A) (A) (A) (A)
                 (A) (A) (A) (A) (A) (A) (A) (A) (A) (A) (A) (A)
                 (A) (A) (A) (A) (A) (A) (A) (A)
 The electronic state is 1-A.
 Alpha  occ. eigenvalues -- -102.68099 -19.66063 -10.70560 -10.58177 -10.56839
 Alpha  occ. eigenvalues --  -10.56706 -10.56402 -10.55898 -10.55889  -9.82410
 Alpha  occ. eigenvalues --   -7.54861  -7.54293  -7.54227  -1.22516  -0.98794
 Alpha  occ. eigenvalues --   -0.95180  -0.87643  -0.86253  -0.74444  -0.70749
 Alpha  occ. eigenvalues --   -0.65518  -0.61310  -0.56889  -0.56043  -0.53314
 Alpha  occ. eigenvalues --   -0.52402  -0.52073  -0.50549  -0.45351  -0.43671
 Alpha  occ. eigenvalues --   -0.41982  -0.39541  -0.39460  -0.37050  -0.33103
 Alpha  occ. eigenvalues --   -0.32661
 Alpha virt. eigenvalues --   -0.04979   0.00372   0.01048   0.02664   0.03152
 Alpha virt. eigenvalues --    0.04619   0.04912   0.05061   0.05849   0.05903
 Alpha virt. eigenvalues --    0.06671   0.08019   0.08283   0.08755   0.08983
 Alpha virt. eigenvalues --    0.10349   0.11706   0.12357   0.12758   0.12782
 Alpha virt. eigenvalues --    0.14737   0.15059   0.15958   0.16642   0.16668
 Alpha virt. eigenvalues --    0.16679   0.18409   0.19250   0.20244   0.20737
 Alpha virt. eigenvalues --    0.21741   0.21841   0.22976   0.23529   0.23795
 Alpha virt. eigenvalues --    0.24723   0.24962   0.25167   0.26286   0.27018
 Alpha virt. eigenvalues --    0.28159   0.28962   0.30110   0.30412   0.31942
 Alpha virt. eigenvalues --    0.32894   0.34303   0.35241   0.35605   0.38167
 Alpha virt. eigenvalues --    0.41598   0.44577   0.48260   0.49323   0.49716
 Alpha virt. eigenvalues --    0.51893   0.54565   0.55551   0.56204   0.56269
 Alpha virt. eigenvalues --    0.57190   0.58161   0.59561   0.59911   0.62114
 Alpha virt. eigenvalues --    0.64997   0.65650   0.66374   0.66889   0.69812
 Alpha virt. eigenvalues --    0.71461   0.73227   0.73609   0.75188   0.77308
 Alpha virt. eigenvalues --    0.78144   0.83454   0.85273   0.86020   0.87135
 Alpha virt. eigenvalues --    0.88227   0.88456   0.88843   0.89443   0.91137
 Alpha virt. eigenvalues --    0.92086   0.93127   0.98685   0.99705   0.99959
 Alpha virt. eigenvalues --    1.01242   1.02823   1.04467   1.07290   1.11690
 Alpha virt. eigenvalues --    1.12026   1.12254   1.14662   1.17293   1.18111
 Alpha virt. eigenvalues --    1.19657   1.20886   1.24014   1.30704   1.33112
 Alpha virt. eigenvalues --    1.41277   1.43440   1.52618   1.52988   1.54139
 Alpha virt. eigenvalues --    1.55210   1.55230   1.60456   1.60488   1.62908
 Alpha virt. eigenvalues --    1.68184   1.68448   1.70681   1.73564   1.77292
 Alpha virt. eigenvalues --    1.78388   1.80089   1.80360   1.84750   1.87853
 Alpha virt. eigenvalues --    1.94543   1.94678   1.95244   1.96365   1.97654
 Alpha virt. eigenvalues --    1.98901   2.02332   2.04219   2.06750   2.09862
 Alpha virt. eigenvalues --    2.12877   2.20990   2.28289   2.31709   2.35493
 Alpha virt. eigenvalues --    2.36506   2.42035   2.43336   2.43635   2.44488
 Alpha virt. eigenvalues --    2.51694   2.62975   2.65725   2.67151   2.69502
 Alpha virt. eigenvalues --    2.71232   2.72365   2.72441   2.76113   2.76512
 Alpha virt. eigenvalues --    2.78787   2.84031   2.85253   2.85690   2.88425
 Alpha virt. eigenvalues --    2.91059   2.94531   2.95044   2.98676   2.99602
 Alpha virt. eigenvalues --    3.12411   3.14226   3.24975   3.26089   3.38454
 Alpha virt. eigenvalues --    3.39790   3.41331   3.52037   3.55117   3.55631
 Alpha virt. eigenvalues --    3.64483   3.67179   3.85761   4.01957   4.06178
 Alpha virt. eigenvalues --    4.17273   4.17879   4.29755   4.84452   5.12369
 Alpha virt. eigenvalues --    5.26852   5.78383   9.95507  23.65799  23.89082
 Alpha virt. eigenvalues --   24.00826  24.01519  24.12390  24.15979  24.24934
 Alpha virt. eigenvalues --   25.91530  26.16910  26.57205  50.06685 216.05819
          Condensed to atoms (all electrons):
               1          2          3          4          5          6
     1  C   12.442515  -0.569452   0.374381   0.328754  -2.500043  -3.593997
     2  C   -0.569452   6.945835   0.378114  -0.007575  -0.567961  -0.192630
     3  C    0.374381   0.378114   5.706631   0.459826  -1.110819   0.090793
     4  C    0.328754  -0.007575   0.459826   6.356469  -0.131380  -1.143444
     5  C   -2.500043  -0.567961  -1.110819  -0.131380  14.002918   0.039346
     6  C   -3.593997  -0.192630   0.090793  -1.143444   0.039346  10.771324
     7  H    0.336087   0.071372   0.001388  -0.003621   0.011596  -0.042152
     8  H   -0.019907   0.364686   0.008838  -0.019955   0.010802   0.000452
     9  H   -0.055632   0.025851   0.369594   0.014091   0.028183  -0.027309
    10  H    0.007254  -0.022955   0.009221   0.347547   0.012245  -0.004126
    11  H   -0.028151   0.001400  -0.012471  -0.006096   0.004939   0.379055
    12  C    0.857871   0.461360  -0.026840   0.145104  -5.645690  -0.693093
    13  O   -0.193965  -0.036137  -0.015706   0.055107  -0.225907  -0.007878
    14  Cl  -0.576604  -0.282519  -0.082739   0.020258   0.451063   0.156383
               7          8          9         10         11         12
     1  C    0.336087  -0.019907  -0.055632   0.007254  -0.028151   0.857871
     2  C    0.071372   0.364686   0.025851  -0.022955   0.001400   0.461360
     3  C    0.001388   0.008838   0.369594   0.009221  -0.012471  -0.026840
     4  C   -0.003621  -0.019955   0.014091   0.347547  -0.006096   0.145104
     5  C    0.011596   0.010802   0.028183   0.012245   0.004939  -5.645690
     6  C   -0.042152   0.000452  -0.027309  -0.004126   0.379055  -0.693093
     7  H    0.457998  -0.006023  -0.000127   0.000034  -0.000003  -0.034502
     8  H   -0.006023   0.456953  -0.005548  -0.000103   0.000033   0.012271
     9  H   -0.000127  -0.005548   0.454803  -0.005461  -0.000119   0.002683
    10  H    0.000034  -0.000103  -0.005461   0.456224  -0.004910   0.007672
    11  H   -0.000003   0.000033  -0.000119  -0.004910   0.438789   0.014784
    12  C   -0.034502   0.012271   0.002683   0.007672   0.014784  11.548800
    13  O   -0.002405   0.000044   0.000008   0.000035   0.002644   0.532560
    14  Cl  -0.009415   0.000326  -0.000065   0.000131  -0.000848  -0.035539
              13         14
     1  C   -0.193965  -0.576604
     2  C   -0.036137  -0.282519
     3  C   -0.015706  -0.082739
     4  C    0.055107   0.020258
     5  C   -0.225907   0.451063
     6  C   -0.007878   0.156383
     7  H   -0.002405  -0.009415
     8  H    0.000044   0.000326
     9  H    0.000008  -0.000065
    10  H    0.000035   0.000131
    11  H    0.002644  -0.000848
    12  C    0.532560  -0.035539
    13  O    8.118872  -0.065185
    14  Cl  -0.065185  17.083503
 Mulliken charges:
               1
     1  C   -0.809112
     2  C   -0.569391
     3  C   -0.150211
     4  C   -0.415085
     5  C    1.620709
     6  C    0.267275
     7  H    0.219771
     8  H    0.197130
     9  H    0.199048
    10  H    0.197189
    11  H    0.210955
    12  C   -1.147442
    13  O   -0.162086
    14  Cl   0.341250
 Sum of Mulliken charges =   0.00000
 Mulliken charges with hydrogens summed into heavy atoms:
               1
     1  C   -0.589341
     2  C   -0.372261
     3  C    0.048837
     4  C   -0.217896
     5  C    1.620709
     6  C    0.478230
    12  C   -1.147442
    13  O   -0.162086
    14  Cl   0.341250
 APT charges:
               1
     1  C    0.009793
     2  C   -0.152769
     3  C    0.059806
     4  C   -0.160612
     5  C   -0.420196
     6  C    0.012640
     7  H    0.117220
     8  H    0.074786
     9  H    0.079885
    10  H    0.079742
    11  H    0.109440
    12  C    1.854981
    13  O   -1.035207
    14  Cl  -0.629511
 Sum of APT charges =   0.00000
 APT charges with hydrogens summed into heavy atoms:
               1
     1  C    0.127013
     2  C   -0.077983
     3  C    0.139691
     4  C   -0.080869
     5  C   -0.420196
     6  C    0.122080
    12  C    1.854981
    13  O   -1.035207
    14  Cl  -0.629511
 Electronic spatial extent (au):  <R**2>=           1465.9113
 Charge=              0.0000 electrons
 Dipole moment (field-independent basis, Debye):
    X=              4.7851    Y=             -1.5758    Z=              0.0002  Tot=              5.0378
 Quadrupole moment (field-independent basis, Debye-Ang):
   XX=            -56.5728   YY=            -55.8522   ZZ=            -61.9037
   XY=              3.2494   XZ=             -0.0006   YZ=              0.0003
 Traceless Quadrupole moment (field-independent basis, Debye-Ang):
   XX=              1.5368   YY=              2.2574   ZZ=             -3.7942
   XY=              3.2494   XZ=             -0.0006   YZ=              0.0003
 Octapole moment (field-independent basis, Debye-Ang**2):
  XXX=             35.9159  YYY=             -8.8724  ZZZ=             -0.0003  XYY=             13.2601
  XXY=             -7.5339  XXZ=             -0.0010  XZZ=            -12.0356  YZZ=              2.2033
  YYZ=              0.0001  XYZ=             -0.0006
 Hexadecapole moment (field-independent basis, Debye-Ang**3):
 XXXX=          -1308.3288 YYYY=           -443.1756 ZZZZ=            -70.4142 XXXY=             15.4796
 XXXZ=             -0.0029 YYYX=             16.5224 YYYZ=              0.0005 ZZZX=              0.0006
 ZZZY=             -0.0001 XXYY=           -297.2254 XXZZ=           -264.4103 YYZZ=            -96.5560
 XXYZ=              0.0018 YYXZ=             -0.0003 ZZXY=             -1.4438
 N-N= 4.610613208783D+02 E-N=-2.819197104106D+03  KE= 8.027715952205D+02
  Exact polarizability: 160.494   1.998 134.278  -0.001   0.001  63.712
 Approx polarizability: 146.923   0.742 144.557  -0.001   0.000  68.081
 No NMR shielding tensors so no spin-rotation constants.
 Leave Link  601 at Tue May  8 03:08:14 2018, MaxMem=   268435456 cpu:         0.4
 (Enter /ihome/crc/build/g09/g09-D.01/TAR/g09/l607.exe)
 ******************************Gaussian NBO Version 3.1******************************
             N A T U R A L   A T O M I C   O R B I T A L   A N D
          N A T U R A L   B O N D   O R B I T A L   A N A L Y S I S
 ******************************Gaussian NBO Version 3.1******************************
       /RESON  / : Allow strongly delocalized NBO set

 Analyzing the SCF density

 Job title: 1.g09                                                           

 Storage needed:    168242 in NPA,    223718 in NBO ( 268434364 available)


 NATURAL POPULATIONS:  Natural atomic orbital occupancies 
                                                          
   NAO  Atom  No  lang   Type(AO)    Occupancy      Energy
 ----------------------------------------------------------
     1    C    1  S      Cor( 1S)     1.99914     -10.41430
     2    C    1  S      Val( 2S)     0.94854      -0.18981
     3    C    1  S      Ryd( 3S)     0.00145       0.77903
     4    C    1  S      Ryd( 4S)     0.00013       0.78585
     5    C    1  S      Ryd( 5S)     0.00001      23.10725
     6    C    1  px     Val( 2p)     1.13061      -0.08608
     7    C    1  px     Ryd( 4p)     0.00503       0.98431
     8    C    1  px     Ryd( 3p)     0.00047       0.47700
     9    C    1  px     Ryd( 5p)     0.00011       3.16355
    10    C    1  py     Val( 2p)     1.12417      -0.07733
    11    C    1  py     Ryd( 4p)     0.00516       0.92493
    12    C    1  py     Ryd( 3p)     0.00050       0.39306
    13    C    1  py     Ryd( 5p)     0.00011       3.23704
    14    C    1  pz     Val( 2p)     0.94571      -0.12703
    15    C    1  pz     Ryd( 4p)     0.00110       0.55397
    16    C    1  pz     Ryd( 3p)     0.00045       0.33699
    17    C    1  pz     Ryd( 5p)     0.00002       2.70453
    18    C    1  dxy    Ryd( 3d)     0.00068       2.51259
    19    C    1  dxz    Ryd( 3d)     0.00051       1.66567
    20    C    1  dyz    Ryd( 3d)     0.00043       1.67193
    21    C    1  dx2y2  Ryd( 3d)     0.00053       2.61838
    22    C    1  dz2    Ryd( 3d)     0.00035       2.07049

    23    C    2  S      Cor( 1S)     1.99922     -10.40843
    24    C    2  S      Val( 2S)     0.95731      -0.19266
    25    C    2  S      Ryd( 3S)     0.00149       0.85140
    26    C    2  S      Ryd( 4S)     0.00014       1.27602
    27    C    2  S      Ryd( 5S)     0.00000      22.53505
    28    C    2  px     Val( 2p)     1.07123      -0.06988
    29    C    2  px     Ryd( 4p)     0.00480       0.85746
    30    C    2  px     Ryd( 3p)     0.00040       0.39927
    31    C    2  px     Ryd( 5p)     0.00013       3.09014
    32    C    2  py     Val( 2p)     1.18063      -0.08379
    33    C    2  py     Ryd( 4p)     0.00669       1.07283
    34    C    2  py     Ryd( 3p)     0.00027       0.28076
    35    C    2  py     Ryd( 5p)     0.00007       3.22237
    36    C    2  pz     Val( 2p)     0.99154      -0.12614
    37    C    2  pz     Ryd( 4p)     0.00098       0.56265
    38    C    2  pz     Ryd( 3p)     0.00016       0.34437
    39    C    2  pz     Ryd( 5p)     0.00001       2.67563
    40    C    2  dxy    Ryd( 3d)     0.00060       2.56787
    41    C    2  dxz    Ryd( 3d)     0.00041       1.69551
    42    C    2  dyz    Ryd( 3d)     0.00047       1.64432
    43    C    2  dx2y2  Ryd( 3d)     0.00065       2.55097
    44    C    2  dz2    Ryd( 3d)     0.00035       2.05243

    45    C    3  S      Cor( 1S)     1.99922     -10.41319
    46    C    3  S      Val( 2S)     0.96331      -0.19834
    47    C    3  S      Ryd( 3S)     0.00150       0.73426
    48    C    3  S      Ryd( 4S)     0.00012       1.28266
    49    C    3  S      Ryd( 5S)     0.00000      22.65830
    50    C    3  px     Val( 2p)     1.18380      -0.08176
    51    C    3  px     Ryd( 4p)     0.00674       1.06360
    52    C    3  px     Ryd( 3p)     0.00029       0.30026
    53    C    3  px     Ryd( 5p)     0.00007       3.22929
    54    C    3  py     Val( 2p)     1.06529      -0.06761
    55    C    3  py     Ryd( 4p)     0.00451       0.83188
    56    C    3  py     Ryd( 3p)     0.00053       0.47245
    57    C    3  py     Ryd( 5p)     0.00013       3.01080
    58    C    3  pz     Val( 2p)     0.94384      -0.12357
    59    C    3  pz     Ryd( 4p)     0.00081       0.56541
    60    C    3  pz     Ryd( 3p)     0.00015       0.40508
    61    C    3  pz     Ryd( 5p)     0.00001       2.60702
    62    C    3  dxy    Ryd( 3d)     0.00057       2.58468
    63    C    3  dxz    Ryd( 3d)     0.00046       1.63716
    64    C    3  dyz    Ryd( 3d)     0.00049       1.69635
    65    C    3  dx2y2  Ryd( 3d)     0.00072       2.52044
    66    C    3  dz2    Ryd( 3d)     0.00032       2.05808

    67    C    4  S      Cor( 1S)     1.99921     -10.40831
    68    C    4  S      Val( 2S)     0.95788      -0.19252
    69    C    4  S      Ryd( 3S)     0.00143       0.86112
    70    C    4  S      Ryd( 4S)     0.00011       1.31092
    71    C    4  S      Ryd( 5S)     0.00000      22.50459
    72    C    4  px     Val( 2p)     1.11615      -0.07449
    73    C    4  px     Ryd( 4p)     0.00549       0.95780
    74    C    4  px     Ryd( 3p)     0.00037       0.36640
    75    C    4  px     Ryd( 5p)     0.00011       3.12461
    76    C    4  py     Val( 2p)     1.13633      -0.07863
    77    C    4  py     Ryd( 4p)     0.00567       0.98987
    78    C    4  py     Ryd( 3p)     0.00035       0.33996
    79    C    4  py     Ryd( 5p)     0.00010       3.14760
    80    C    4  pz     Val( 2p)     0.99003      -0.12590
    81    C    4  pz     Ryd( 4p)     0.00093       0.56575
    82    C    4  pz     Ryd( 3p)     0.00017       0.36670
    83    C    4  pz     Ryd( 5p)     0.00001       2.65101
    84    C    4  dxy    Ryd( 3d)     0.00070       2.51060
    85    C    4  dxz    Ryd( 3d)     0.00046       1.67406
    86    C    4  dyz    Ryd( 3d)     0.00044       1.66656
    87    C    4  dx2y2  Ryd( 3d)     0.00054       2.60974
    88    C    4  dz2    Ryd( 3d)     0.00035       2.05454

    89    C    5  S      Cor( 1S)     1.99890     -10.43068
    90    C    5  S      Val( 2S)     0.90289      -0.17588
    91    C    5  S      Ryd( 3S)     0.00128       0.75156
    92    C    5  S      Ryd( 4S)     0.00011       2.40846
    93    C    5  S      Ryd( 5S)     0.00001      21.68022
    94    C    5  px     Val( 2p)     1.07339      -0.12035
    95    C    5  px     Ryd( 4p)     0.00547       1.11868
    96    C    5  px     Ryd( 3p)     0.00030       0.69327
    97    C    5  px     Ryd( 5p)     0.00014       3.20652
    98    C    5  py     Val( 2p)     1.12556      -0.11400
    99    C    5  py     Ryd( 4p)     0.00513       1.14838
   100    C    5  py     Ryd( 3p)     0.00030       0.63796
   101    C    5  py     Ryd( 5p)     0.00012       3.19877
   102    C    5  pz     Val( 2p)     1.08585      -0.14669
   103    C    5  pz     Ryd( 4p)     0.00113       0.58429
   104    C    5  pz     Ryd( 3p)     0.00021       0.54644
   105    C    5  pz     Ryd( 5p)     0.00001       2.57887
   106    C    5  dxy    Ryd( 3d)     0.00050       2.62457
   107    C    5  dxz    Ryd( 3d)     0.00019       1.64020
   108    C    5  dyz    Ryd( 3d)     0.00062       1.68600
   109    C    5  dx2y2  Ryd( 3d)     0.00081       2.50600
   110    C    5  dz2    Ryd( 3d)     0.00043       2.06928

   111    C    6  S      Cor( 1S)     1.99914     -10.41342
   112    C    6  S      Val( 2S)     0.94928      -0.18860
   113    C    6  S      Ryd( 3S)     0.00162       0.80333
   114    C    6  S      Ryd( 4S)     0.00013       1.01054
   115    C    6  S      Ryd( 5S)     0.00001      22.86929
   116    C    6  px     Val( 2p)     1.07414      -0.07378
   117    C    6  px     Ryd( 4p)     0.00501       0.92443
   118    C    6  px     Ryd( 3p)     0.00060       0.50204
   119    C    6  px     Ryd( 5p)     0.00017       3.17062
   120    C    6  py     Val( 2p)     1.17470      -0.08613
   121    C    6  py     Ryd( 4p)     0.00642       0.99878
   122    C    6  py     Ryd( 3p)     0.00039       0.28134
   123    C    6  py     Ryd( 5p)     0.00007       3.27665
   124    C    6  pz     Val( 2p)     0.93926      -0.12530
   125    C    6  pz     Ryd( 4p)     0.00088       0.55593
   126    C    6  pz     Ryd( 3p)     0.00038       0.32048
   127    C    6  pz     Ryd( 5p)     0.00001       2.71785
   128    C    6  dxy    Ryd( 3d)     0.00063       2.58342
   129    C    6  dxz    Ryd( 3d)     0.00052       1.69010
   130    C    6  dyz    Ryd( 3d)     0.00040       1.64877
   131    C    6  dx2y2  Ryd( 3d)     0.00060       2.54691
   132    C    6  dz2    Ryd( 3d)     0.00035       2.06786

   133    H    7  S      Val( 1S)     0.75440       0.06951
   134    H    7  S      Ryd( 2S)     0.00062       1.02534
   135    H    7  S      Ryd( 3S)     0.00017       1.67336
   136    H    7  px     Ryd( 2p)     0.00025       2.33245
   137    H    7  py     Ryd( 2p)     0.00028       2.42824
   138    H    7  pz     Ryd( 2p)     0.00007       1.63836

   139    H    8  S      Val( 1S)     0.76503       0.07025
   140    H    8  S      Ryd( 2S)     0.00042       0.75354
   141    H    8  S      Ryd( 3S)     0.00016       2.05500
   142    H    8  px     Ryd( 2p)     0.00010       2.08444
   143    H    8  py     Ryd( 2p)     0.00036       2.64924
   144    H    8  pz     Ryd( 2p)     0.00008       1.63638

   145    H    9  S      Val( 1S)     0.76742       0.06946
   146    H    9  S      Ryd( 2S)     0.00034       0.77133
   147    H    9  S      Ryd( 3S)     0.00016       2.01441
   148    H    9  px     Ryd( 2p)     0.00038       2.68757
   149    H    9  py     Ryd( 2p)     0.00008       2.03655
   150    H    9  pz     Ryd( 2p)     0.00007       1.63464

   151    H   10  S      Val( 1S)     0.76468       0.07055
   152    H   10  S      Ryd( 2S)     0.00042       0.76671
   153    H   10  S      Ryd( 3S)     0.00016       2.03545
   154    H   10  px     Ryd( 2p)     0.00021       2.32563
   155    H   10  py     Ryd( 2p)     0.00025       2.40676
   156    H   10  pz     Ryd( 2p)     0.00008       1.63650

   157    H   11  S      Val( 1S)     0.75418       0.07202
   158    H   11  S      Ryd( 2S)     0.00080       1.19541
   159    H   11  S      Ryd( 3S)     0.00017       1.56367
   160    H   11  px     Ryd( 2p)     0.00011       2.11499
   161    H   11  py     Ryd( 2p)     0.00039       2.66402
   162    H   11  pz     Ryd( 2p)     0.00007       1.64256

   163    C   12  S      Cor( 1S)     1.99916     -10.58888
   164    C   12  S      Val( 2S)     0.88304      -0.25709
   165    C   12  S      Ryd( 3S)     0.00642       0.80431
   166    C   12  S      Ryd( 4S)     0.00022       0.84884
   167    C   12  S      Ryd( 5S)     0.00004      22.90068
   168    C   12  px     Val( 2p)     0.93671      -0.11721
   169    C   12  px     Ryd( 4p)     0.00800       0.91863
   170    C   12  px     Ryd( 3p)     0.00084       0.52256
   171    C   12  px     Ryd( 5p)     0.00037       2.64630
   172    C   12  py     Val( 2p)     0.78885      -0.08019
   173    C   12  py     Ryd( 4p)     0.02073       0.95438
   174    C   12  py     Ryd( 3p)     0.00075       0.43923
   175    C   12  py     Ryd( 5p)     0.00018       2.70235
   176    C   12  pz     Val( 2p)     0.76705      -0.16091
   177    C   12  pz     Ryd( 4p)     0.00166       0.65905
   178    C   12  pz     Ryd( 3p)     0.00061       0.37198
   179    C   12  pz     Ryd( 5p)     0.00002       2.46519
   180    C   12  dxy    Ryd( 3d)     0.00465       2.23075
   181    C   12  dxz    Ryd( 3d)     0.00151       1.52145
   182    C   12  dyz    Ryd( 3d)     0.00413       1.55779
   183    C   12  dx2y2  Ryd( 3d)     0.00290       2.37986
   184    C   12  dz2    Ryd( 3d)     0.00073       1.89650

   185    O   13  S      Cor( 1S)     1.99973     -19.37729
   186    O   13  S      Val( 2S)     1.68458      -1.02887
   187    O   13  S      Ryd( 3S)     0.00247       1.06363
   188    O   13  S      Ryd( 4S)     0.00006       1.23320
   189    O   13  S      Ryd( 5S)     0.00000      49.77245
   190    O   13  px     Val( 2p)     1.79537      -0.38223
   191    O   13  px     Ryd( 3p)     0.00455       0.70687
   192    O   13  px     Ryd( 4p)     0.00012       0.93599
   193    O   13  px     Ryd( 5p)     0.00003       5.19256
   194    O   13  py     Val( 2p)     1.63478      -0.41556
   195    O   13  py     Ryd( 3p)     0.00206       0.60347
   196    O   13  py     Ryd( 4p)     0.00039       0.94013
   197    O   13  py     Ryd( 5p)     0.00014       5.37419
   198    O   13  pz     Val( 2p)     1.40181      -0.32154
   199    O   13  pz     Ryd( 3p)     0.00158       0.55538
   200    O   13  pz     Ryd( 4p)     0.00003       0.90523
   201    O   13  pz     Ryd( 5p)     0.00004       5.04193
   202    O   13  dxy    Ryd( 3d)     0.00175       3.40925
   203    O   13  dxz    Ryd( 3d)     0.00027       2.91272
   204    O   13  dyz    Ryd( 3d)     0.00182       3.11551
   205    O   13  dx2y2  Ryd( 3d)     0.00175       3.41614
   206    O   13  dz2    Ryd( 3d)     0.00050       3.12146

   207   Cl   14  S      Cor( 1S)     2.00000    -101.26407
   208   Cl   14  S      Cor( 2S)     1.99977     -10.96175
   209   Cl   14  S      Val( 3S)     1.87316      -1.08068
   210   Cl   14  S      Ryd( 4S)     0.00132       0.97226
   211   Cl   14  S      Ryd( 5S)     0.00031       1.07222
   212   Cl   14  S      Ryd( 6S)     0.00000      18.23292
   213   Cl   14  S      Ryd( 7S)     0.00000     207.34827
   214   Cl   14  px     Cor( 2p)     1.99997      -7.54070
   215   Cl   14  px     Val( 3p)     1.68060      -0.35801
   216   Cl   14  px     Ryd( 4p)     0.00163       0.47160
   217   Cl   14  px     Ryd( 5p)     0.00014       0.47190
   218   Cl   14  px     Ryd( 6p)     0.00004       2.65049
   219   Cl   14  px     Ryd( 7p)     0.00000      25.69504
   220   Cl   14  py     Cor( 2p)     1.99996      -7.54075
   221   Cl   14  py     Val( 3p)     1.61909      -0.34812
   222   Cl   14  py     Ryd( 4p)     0.00184       0.45962
   223   Cl   14  py     Ryd( 5p)     0.00014       0.51507
   224   Cl   14  py     Ryd( 6p)     0.00004       2.64457
   225   Cl   14  py     Ryd( 7p)     0.00000      25.67224
   226   Cl   14  pz     Cor( 2p)     1.99999      -7.53903
   227   Cl   14  pz     Val( 3p)     1.90776      -0.38880
   228   Cl   14  pz     Ryd( 4p)     0.00078       0.43721
   229   Cl   14  pz     Ryd( 5p)     0.00007       0.49276
   230   Cl   14  pz     Ryd( 6p)     0.00000       2.41921
   231   Cl   14  pz     Ryd( 7p)     0.00000      25.44390
   232   Cl   14  dxy    Ryd( 3d)     0.00471       1.19532
   233   Cl   14  dxz    Ryd( 3d)     0.00071       0.95613
   234   Cl   14  dyz    Ryd( 3d)     0.00074       0.96603
   235   Cl   14  dx2y2  Ryd( 3d)     0.00094       1.16236
   236   Cl   14  dz2    Ryd( 3d)     0.00142       1.02716

 WARNING:  1 low occupancy (<1.9990e) core orbital  found on  C    5

 WARNING:  Population inversion found on atom  C    1
           Population inversion found on atom  C    2
           Population inversion found on atom  C    3
           Population inversion found on atom  C    4
           Population inversion found on atom  C    5
           Population inversion found on atom  C    6
           Population inversion found on atom  C   12
           Population inversion found on atom  O   13


 Summary of Natural Population Analysis:                  
                                                          
                                       Natural Population 
                Natural  -----------------------------------------------
    Atom  No    Charge         Core      Valence    Rydberg      Total
 -----------------------------------------------------------------------
      C    1   -0.16520      1.99914     4.14902    0.01704     6.16520
      C    2   -0.21756      1.99922     4.20071    0.01763     6.21756
      C    3   -0.17288      1.99922     4.15623    0.01743     6.17288
      C    4   -0.21686      1.99921     4.20040    0.01724     6.21686
      C    5   -0.20335      1.99890     4.18769    0.01677     6.20335
      C    6   -0.15470      1.99914     4.13738    0.01819     6.15470
      H    7    0.24420      0.00000     0.75440    0.00139     0.75580
      H    8    0.23385      0.00000     0.76503    0.00112     0.76615
      H    9    0.23155      0.00000     0.76742    0.00102     0.76845
      H   10    0.23420      0.00000     0.76468    0.00112     0.76580
      H   11    0.24429      0.00000     0.75418    0.00153     0.75571
      C   12    0.57143      1.99916     3.37565    0.05375     5.42857
      O   13   -0.53382      1.99973     6.51654    0.01756     8.53382
     Cl   14   -0.09514      9.99969     7.08062    0.01483    17.09514
 =======================================================================
   * Total *    0.00000     25.99341    45.80995    0.19664    72.00000

                                 Natural Population      
 --------------------------------------------------------
   Core                      25.99341 ( 99.9746% of  26)
   Valence                   45.80995 ( 99.5869% of  46)
   Natural Minimal Basis     71.80336 ( 99.7269% of  72)
   Natural Rydberg Basis      0.19664 (  0.2731% of  72)
 --------------------------------------------------------

    Atom  No          Natural Electron Configuration
 ----------------------------------------------------------------------------
      C    1      [core]2S( 0.95)2p( 3.20)4p( 0.01)
      C    2      [core]2S( 0.96)2p( 3.24)4p( 0.01)
      C    3      [core]2S( 0.96)2p( 3.19)4p( 0.01)
      C    4      [core]2S( 0.96)2p( 3.24)4p( 0.01)
      C    5      [core]2S( 0.90)2p( 3.28)4p( 0.01)
      C    6      [core]2S( 0.95)2p( 3.19)4p( 0.01)
      H    7            1S( 0.75)
      H    8            1S( 0.77)
      H    9            1S( 0.77)
      H   10            1S( 0.76)
      H   11            1S( 0.75)
      C   12      [core]2S( 0.88)2p( 2.49)3S( 0.01)3d( 0.01)4p( 0.03)
      O   13      [core]2S( 1.68)2p( 4.83)3p( 0.01)3d( 0.01)
     Cl   14      [core]3S( 1.87)3p( 5.21)3d( 0.01)


 NATURAL BOND ORBITAL ANALYSIS:

                       Occupancies       Lewis Structure    Low   High
           Occ.    -------------------  -----------------   occ   occ
  Cycle   Thresh.   Lewis   Non-Lewis     CR  BD  3C  LP    (L)   (NL)   Dev
 =============================================================================
   1(1)    1.90    68.14880   3.85120     13  16   0   7     5      6    0.46
   2(2)    1.90    68.14880   3.85120     13  16   0   7     5      6    0.46
   3(1)    1.80    68.43399   3.56601     13  15   0   8     3      5    0.46
   4(2)    1.80    68.43399   3.56601     13  15   0   8     3      5    0.46
   5(1)    1.70    68.43399   3.56601     13  15   0   8     3      5    0.46
   6(2)    1.70    68.43399   3.56601     13  15   0   8     3      5    0.46
   7(1)    1.60    70.26372   1.73628     13  18   0   5     0      5    0.46
   8(2)    1.60    70.29270   1.70730     13  18   0   5     0      5    0.44
   9(3)    1.60    69.74067   2.25933     13  17   0   6     1      5    0.43
  10(4)    1.60    70.29270   1.70730     13  18   0   5     0      5    0.44
  11(5)    1.60    70.26372   1.73628     13  18   0   5     0      5    0.46
  12(6)    1.60    69.74067   2.25933     13  17   0   6     1      5    0.43
  13(7)    1.60    70.29270   1.70730     13  18   0   5     0      5    0.44
  14(8)    1.60    70.26372   1.73628     13  18   0   5     0      5    0.46
  15(9)    1.60    69.74067   2.25933     13  17   0   6     1      5    0.43
  16(1)    1.50    70.29270   1.70730     13  18   0   5     0      5    0.44
  17(2)    1.50    69.74067   2.25933     13  17   0   6     1      5    0.43
  18(3)    1.50    70.29270   1.70730     13  18   0   5     0      5    0.44
  19(4)    1.50    70.26372   1.73628     13  18   0   5     0      5    0.46
  20(5)    1.50    69.74067   2.25933     13  17   0   6     1      5    0.43
  21(6)    1.50    70.29270   1.70730     13  18   0   5     0      5    0.44
  22(7)    1.50    70.26372   1.73628     13  18   0   5     0      5    0.46
  23(8)    1.50    69.74067   2.25933     13  17   0   6     1      5    0.43
  24(9)    1.50    70.29270   1.70730     13  18   0   5     0      5    0.44
  25(1)    1.60    70.29270   1.70730     13  18   0   5     0      5    0.44
 -----------------------------------------------------------------------------

 Structure accepted: RESONANCE keyword permits strongly delocalized structure

 WARNING:  1 low occupancy (<1.9990e) core orbital  found on  C    5

 --------------------------------------------------------
   Core                     25.99342 ( 99.975% of  26)
   Valence Lewis            44.29928 ( 96.303% of  46)
  ==================       ============================
   Total Lewis              70.29270 ( 97.629% of  72)
  -----------------------------------------------------
   Valence non-Lewis         1.57509 (  2.188% of  72)
   Rydberg non-Lewis         0.13222 (  0.184% of  72)
  ==================       ============================
   Total non-Lewis           1.70730 (  2.371% of  72)
 --------------------------------------------------------


       (Occupancy)   Bond orbital/ Coefficients/ Hybrids
 ---------------------------------------------------------------------------------
     1. (1.97889) BD ( 1) C   1 - C   2  
                ( 50.49%)   0.7106* C   1 s( 35.89%)p 1.79( 64.07%)d 0.00(  0.03%)
                                            0.0000  0.5989 -0.0166 -0.0003 -0.0001
                                            0.7795 -0.0063 -0.0135  0.0009 -0.1759
                                            0.0430 -0.0026 -0.0012  0.0000  0.0000
                                            0.0000  0.0000 -0.0026  0.0000  0.0000
                                            0.0147 -0.0108
                ( 49.51%)   0.7036* C   2 s( 35.40%)p 1.82( 64.57%)d 0.00(  0.04%)
                                            0.0000  0.5948 -0.0138  0.0018  0.0003
                                           -0.7905  0.0269 -0.0106 -0.0006  0.1365
                                            0.0368  0.0062  0.0003  0.0000  0.0000
                                            0.0000  0.0000 -0.0084  0.0000  0.0000
                                            0.0129 -0.0114
     2. (1.97521) BD ( 1) C   1 - C   5  
                ( 48.21%)   0.6943* C   1 s( 34.83%)p 1.87( 65.14%)d 0.00(  0.03%)
                                            0.0000 -0.5900  0.0115 -0.0009 -0.0005
                                            0.2826 -0.0265 -0.0044  0.0002 -0.7554
                                            0.0023  0.0139 -0.0014  0.0000  0.0000
                                            0.0000  0.0000  0.0072  0.0000  0.0000
                                            0.0125  0.0111
                ( 51.79%)   0.7197* C   5 s( 36.19%)p 1.76( 63.79%)d 0.00(  0.03%)
                                            0.0001 -0.6015  0.0052  0.0018  0.0001
                                           -0.2212 -0.0141 -0.0029 -0.0007  0.7672
                                           -0.0108  0.0064  0.0018  0.0000  0.0000
                                            0.0000  0.0000  0.0068  0.0000  0.0000
                                            0.0106  0.0117
     3. (1.64886) BD ( 2) C   1 - C   5  
                ( 44.48%)   0.6670* C   1 s(  0.00%)p 1.00( 99.95%)d 0.00(  0.05%)
                                            0.0000  0.0000  0.0000  0.0000  0.0000
                                            0.0000  0.0000  0.0000  0.0000  0.0000
                                            0.0000  0.0000  0.0000  0.9995  0.0075
                                            0.0192  0.0007  0.0000  0.0048  0.0228
                                            0.0000  0.0000
                ( 55.52%)   0.7451* C   5 s(  0.00%)p 1.00( 99.99%)d 0.00(  0.01%)
                                            0.0000  0.0000  0.0000  0.0000  0.0000
                                            0.0000  0.0000  0.0000  0.0000  0.0000
                                            0.0000  0.0000  0.0000  0.9998  0.0065
                                           -0.0122  0.0008  0.0000  0.0030 -0.0103
[...]
 Iteration  2 RMS(Cart)=  0.00000843 RMS(Int)=  0.00000005
 Iteration  3 RMS(Cart)=  0.00000000 RMS(Int)=  0.00000005
 ITry= 1 IFail=0 DXMaxC= 1.06D-02 DCOld= 1.00D+10 DXMaxT= 3.00D-01 DXLimC= 3.00D+00 Rises=F
 Variable       Old X    -DE/DX   Delta X   Delta X   Delta X     New X
                                 (Linear)    (Quad)   (Total)
    R1        2.63080  -0.00282   0.00000  -0.00514  -0.00514   2.62566
    R2        2.64252  -0.00255   0.00000  -0.00524  -0.00524   2.63728
    R3        2.04968  -0.00179   0.00000  -0.00501  -0.00501   2.04467
    R4        2.63513  -0.00289   0.00000  -0.00564  -0.00564   2.62949
    R5        2.05162  -0.00169   0.00000  -0.00461  -0.00461   2.04701
    R6        2.63854  -0.00276   0.00000  -0.00537  -0.00537   2.63317
    R7        2.05305  -0.00166   0.00000  -0.00449  -0.00449   2.04855
    R8        2.62585  -0.00302   0.00000  -0.00570  -0.00570   2.62015
    R9        2.05214  -0.00176   0.00000  -0.00484  -0.00484   2.04730
   R10        2.65007  -0.00251   0.00000  -0.00493  -0.00493   2.64514
   R11        2.80025  -0.00081   0.00000  -0.00031  -0.00031   2.79994
   R12        2.05148  -0.00171   0.00000  -0.00454  -0.00454   2.04694
   R13        2.25185  -0.01275   0.00000  -0.01520  -0.01520   2.23665
   R14        3.40530  -0.00073   0.00000   0.00635   0.00635   3.41165
    A1        2.08648  -0.00004   0.00000  -0.00024  -0.00024   2.08624
    A2        2.09151  -0.00001   0.00000  -0.00018  -0.00018   2.09132
    A3        2.10519   0.00005   0.00000   0.00043   0.00043   2.10562
    A4        2.09729  -0.00003   0.00000   0.00002   0.00002   2.09731
    A5        2.08787   0.00008   0.00000   0.00058   0.00058   2.08845
    A6        2.09803  -0.00005   0.00000  -0.00060  -0.00060   2.09743
    A7        2.09919   0.00014   0.00000   0.00041   0.00041   2.09960
    A8        2.09177  -0.00005   0.00000   0.00007   0.00007   2.09183
    A9        2.09222  -0.00010   0.00000  -0.00048  -0.00048   2.09175
   A10        2.09328  -0.00001   0.00000  -0.00038  -0.00038   2.09290
   A11        2.09864   0.00001   0.00000   0.00021   0.00021   2.09885
   A12        2.09126   0.00000   0.00000   0.00017   0.00017   2.09143
   A13        2.09987  -0.00005   0.00000  -0.00007  -0.00007   2.09980
   A14        2.15536  -0.00007   0.00000   0.00101   0.00101   2.15636
   A15        2.02796   0.00012   0.00000  -0.00094  -0.00094   2.02703
   A16        2.09026  -0.00001   0.00000   0.00026   0.00026   2.09052
   A17        2.10723   0.00011   0.00000   0.00054   0.00054   2.10778
   A18        2.08569  -0.00010   0.00000  -0.00081  -0.00081   2.08489
   A19        2.20143   0.00073   0.00000   0.00565   0.00565   2.20708
   A20        2.02271  -0.00028   0.00000  -0.00393  -0.00393   2.01879
   A21        2.05904  -0.00045   0.00000  -0.00172  -0.00172   2.05732
    D1        0.00000   0.00000   0.00000   0.00000   0.00000   0.00000
    D2       -3.14159   0.00000   0.00000   0.00000   0.00000  -3.14159
    D3       -3.14159   0.00000   0.00000   0.00000   0.00000  -3.14159
    D4        0.00000   0.00000   0.00000   0.00000   0.00000   0.00000
    D5        0.00000   0.00000   0.00000   0.00000   0.00000   0.00000
    D6        3.14158   0.00000   0.00000   0.00001   0.00001   3.14159
    D7        3.14159   0.00000   0.00000   0.00000   0.00000  -3.14159
    D8       -0.00001   0.00000   0.00000   0.00001   0.00001   0.00000
    D9        0.00000   0.00000   0.00000   0.00000   0.00000   0.00000
   D10       -3.14159   0.00000   0.00000   0.00000   0.00000   3.14159
   D11       -3.14159   0.00000   0.00000   0.00000   0.00000   3.14159
   D12        0.00000   0.00000   0.00000   0.00000   0.00000   0.00000
   D13        0.00000   0.00000   0.00000   0.00000   0.00000   0.00000
   D14        3.14159   0.00000   0.00000   0.00000   0.00000   3.14159
   D15        3.14159   0.00000   0.00000   0.00000   0.00000   3.14159
   D16        0.00000   0.00000   0.00000   0.00000   0.00000   0.00000
   D17        0.00000   0.00000   0.00000   0.00000   0.00000   0.00000
   D18       -3.14159   0.00000   0.00000   0.00000   0.00000  -3.14159
   D19       -3.14159   0.00000   0.00000   0.00000   0.00000  -3.14159
   D20        0.00000   0.00000   0.00000   0.00000   0.00000   0.00000
   D21        0.00000   0.00000   0.00000   0.00000   0.00000   0.00000
   D22       -3.14159   0.00000   0.00000   0.00000   0.00000  -3.14159
   D23       -3.14159   0.00000   0.00000  -0.00001  -0.00001  -3.14159
   D24        0.00001   0.00000   0.00000  -0.00001  -0.00001   0.00000
   D25       -3.14144  -0.00001   0.00000  -0.00013  -0.00013  -3.14158
   D26       -0.00008   0.00001   0.00000   0.00011   0.00011   0.00002
   D27        0.00014  -0.00001   0.00000  -0.00013  -0.00013   0.00001
   D28        3.14150   0.00001   0.00000   0.00011   0.00011  -3.14157
         Item               Value     Threshold  Converged?
 Maximum Force            0.012754     0.000450     NO 
 RMS     Force            0.001891     0.000300     NO 
 Maximum Displacement     0.010636     0.001800     NO 
 RMS     Displacement     0.004064     0.001200     NO 
 Predicted change in Energy=-1.622840D-04
 GradGradGradGradGradGradGradGradGradGradGradGradGradGradGradGradGradGrad

 Leave Link  103 at Tue May  8 03:09:37 2018, MaxMem=   268435456 cpu:         0.1
 (Enter /ihome/crc/build/g09/g09-D.01/TAR/g09/l9999.exe)
 1\1\GINC-SMP-N83\Freq\RM062X\6-311+G(d,p)\C7H5Cl1O1\ELK72\08-May-2018\
 0\\#p freq m062x/6-311+g(d,p) scrf=(smd,solvent=chloroform) Geom=Check
 point pop=nbo\\1.g09\\0,1\C,-2.3898810045,0.7677406689,-0.0802778268\C
 ,-3.550961563,0.0006266105,-0.0410751473\C,-3.4701848971,-1.3895178851
 ,0.0328388496\C,-2.2256056425,-2.0214293532,0.0680261185\C,-1.14356518
 4,0.134604307,-0.0450255832\C,-1.0616936351,-1.2633838124,0.0293066824
 \H,-2.4589724078,1.8486548107,-0.1377554509\H,-4.5192669841,0.49085044
 03,-0.0683753844\H,-4.3795735134,-1.9831605151,0.0631618492\H,-2.16329
 72078,-3.1040587699,0.1255907557\H,-0.0872546544,-1.7411662827,0.05595
 40547\C,0.1456333514,0.8642647349,-0.0820822503\O,1.2314560129,0.37414
 77513,-0.0547792897\Cl,0.0309925102,2.6600752317,-0.1777262226\\Versio
 n=EM64L-G09RevD.01\State=1-A\HF=-805.1434871\RMSD=4.790e-09\RMSF=2.824
 e-03\ZeroPoint=0.1013104\Thermal=0.1085533\Dipole=-1.7727861,-0.885267
 4,0.0448078\DipoleDeriv=0.1528432,0.3305217,-0.0172043,-0.0428664,-0.0
 263216,-0.0038048,0.0025542,-0.0033552,-0.0971413,0.0363464,-0.2223764
 ,0.0121063,-0.162365,-0.3153963,0.0070731,0.0089154,0.006962,-0.179256
 7,0.135985,-0.0371544,0.0022982,-0.024649,0.1595293,-0.0147356,0.00164
 29,-0.0147249,-0.116095,-0.3813114,0.061774,-0.0035913,-0.0497185,0.06
 4119,-0.0122122,0.0023739,-0.012089,-0.1646422,-0.6962256,-0.3359858,0
 .0169693,-0.5881981,-0.5437448,0.027076,0.0303888,0.0274214,-0.0206182
 ,0.0983351,-0.1395035,0.0076934,0.3363449,0.0488496,-0.007954,-0.01760
 49,-0.0086173,-0.1092648,0.1307497,-0.0028131,0.0000842,-0.0066147,0.0
 477642,0.0066679,0.0002972,0.0066739,0.1731459,-0.0204141,0.0451937,-0
 .0026805,0.0621425,0.0689181,0.0057856,-0.0035628,0.0057561,0.1758525,
 0.0067506,-0.0676773,0.0033821,-0.0731414,0.06475,0.005403,0.0036635,0
 .0054144,0.1681541,0.0944677,-0.0004505,-0.0000814,0.0003719,-0.030390
 8,0.0109251,-0.0001309,0.0109405,0.1751505,0.0413356,0.0615684,-0.0034
 324,0.0236786,0.1149456,0.0030617,-0.0014291,0.0031182,0.1720403,2.298
 602,-0.0817667,0.0069577,0.4359273,2.9663439,-0.1415732,-0.0206704,-0.
 1421362,0.2999967,-1.6949501,0.4067003,-0.0233987,0.2700939,-1.0818856
 ,0.0404839,-0.0160052,0.040562,-0.3287851,-0.2025142,-0.0180303,0.0008
 972,-0.181006,-1.5374805,0.0738037,0.0095675,0.0740741,-0.1485368\Pola
 r=145.4829999,13.1089498,149.0498753,-0.5893555,-4.5153201,63.9509508\
 PG=C01 [X(C7H5Cl1O1)]\NImag=0\\0.66488040,0.00115844,0.74887385,0.0006
 2228,-0.03204785,0.14690334,-0.28128496,-0.13468547,0.00686693,0.73693
 431,-0.05809307,-0.19519719,0.00680343,-0.03236650,0.68339345,0.002800
 64,0.00670257,-0.06596638,0.00250572,-0.02899879,0.13956500,0.04902856
 ,-0.02580439,0.00142693,-0.13667833,-0.02619310,0.00129557,0.72215714,
 -0.08159161,-0.03266802,0.00192973,0.05063249,-0.34016411,0.01472274,0
 .03859926,0.69343853,0.00438875,0.00200356,0.00560766,-0.00278322,0.01
 462157,-0.06491611,-0.00129112,-0.02905016,0.14688762,-0.07940275,-0.0
 0350741,0.00008770,0.03687789,0.08806375,-0.00463492,-0.29378605,0.043
 23377,-0.00259661,0.66691818,-0.00638564,-0.00100776,-0.00021937,0.034
 45695,-0.01658480,0.00124799,0.12009867,-0.17662022,0.00609805,-0.0005
 4837,0.74780353,0.00024087,-0.00021628,-0.00498457,-0.00178887,0.00131
 802,0.00599270,-0.00667768,0.00599710,-0.06506573,0.00072446,-0.032380
 69,0.13967379,-0.27292826,0.11931654,-0.00660987,-0.05786316,-0.037997
 36,0.00193111,-0.02378276,0.03329913,-0.00178950,0.03614980,-0.0240412
 9,0.00131491,0.66932280,0.05927633,-0.17459412,0.00593515,0.01717397,0
 .06425343,-0.00298862,0.03338585,-0.05394622,0.00252532,-0.08010716,-0
 .03083317,0.00189442,-0.04919025,0.65575089,-0.00342322,0.00601401,-0.
 06456583,-0.00099823,-0.00306136,0.00770379,-0.00179403,0.00252576,-0.
 00734957,0.00429294,0.00196709,0.00673911,0.00330286,-0.02753605,0.139
 80771,0.03176909,0.03247037,-0.00169108,-0.01723079,-0.03039106,0.0015
 9754,-0.05896042,0.02084805,-0.00119141,-0.28396627,-0.13806003,0.0070
 4167,-0.12284205,0.05360889,-0.00292497,0.74880363,0.08487303,-0.01921
 234,0.00149078,-0.03356521,-0.06338588,0.00305645,-0.03439902,0.075484
 28,-0.00376987,-0.06166259,-0.19930022,0.00706976,-0.00590882,-0.30911
 986,0.01306650,-0.02039297,0.66664956,-0.00447325,0.00142061,0.0066669
 6,0.00176588,0.00306073,-0.00514303,0.00174210,-0.00369711,0.00553074,
 0.00298528,0.00696915,-0.06498295,0.00023554,0.01314572,-0.06356345,0.
 00187906,-0.02787326,0.14367407,-0.06003851,0.02114298,-0.00114861,0.0
 0628601,-0.02668442,0.00141768,-0.00428330,-0.00272733,0.00012897,-0.0
 0095618,-0.00024233,0.00001325,0.00415262,0.02602982,-0.00138061,-0.00
 535107,0.00168130,-0.00010449,0.06122940,0.02195131,-0.33844882,0.0158
 6849,0.00313812,-0.00973782,0.00081234,-0.00248319,0.00017114,0.000402
 64,-0.00048723,0.00051649,-0.00009123,-0.00076128,-0.00886604,0.000652
 14,0.00226210,0.00131577,0.00026820,-0.01937566,0.35776792,-0.00119221
 ,0.01586766,-0.04094901,-0.00016534,0.00077313,0.00544429,0.00011600,0
 .00040229,0.00779582,0.00002611,-0.00009091,-0.00118413,0.00004205,0.0
 0068753,0.00340112,-0.00013544,0.00026745,0.00629736,0.00107355,-0.017
 60780,0.02753181,-0.01749386,0.01306094,-0.00072166,-0.28497465,0.1129
 7874,-0.00632053,0.00349009,-0.00215820,0.00011428,0.00151217,-0.00040
 483,0.00001382,-0.00215910,-0.00387339,0.00019349,0.00028126,-0.000577
 28,0.00003253,0.00091738,0.00011129,0.00000106,0.29882057,-0.01776553,
 0.01130062,-0.00043681,0.11382214,-0.11561320,0.00417646,0.02831421,-0
 .00840091,0.00068062,-0.00072092,-0.00548322,0.00068914,-0.00310612,-0
 .00129896,0.00046815,-0.00074903,-0.00099141,-0.00000624,0.00052137,0.
 00076419,-0.00027187,-0.12021959,0.11837051,0.00091581,-0.00039650,0.0
 0353083,-0.00636535,0.00417546,-0.03999962,-0.00150366,0.00064045,0.00
 368075,0.00003030,0.00068967,0.00747865,0.00015199,0.00046757,0.007578
 38,0.00004155,-0.00000588,-0.00108933,-0.00002080,-0.00027241,-0.00435
 527,0.00673903,-0.00497202,0.02797324,0.00140770,0.00123472,-0.0000739
 2,0.00626806,0.00386339,-0.00020348,-0.25602716,-0.12866879,0.00655103
 ,-0.01639654,-0.01681866,0.00086491,0.00016124,0.00097755,-0.00005090,
 -0.00362405,0.00335752,-0.00019301,0.00018328,0.00025225,-0.00001270,0
 .00046601,-0.00040943,0.00002772,0.26743018,0.00116516,-0.00540992,0.0
 0070096,-0.02667822,-0.01084102,0.00080557,-0.12846488,-0.14480886,0.0
 0524460,0.01355238,0.01167297,-0.00033991,0.00093571,-0.00073972,0.000
 00492,0.00337180,-0.00055602,0.00043521,-0.00127926,-0.00048641,0.0000
 0538,0.00024450,0.00113054,-0.00027526,0.13722713,0.14898019,-0.000070
 25,0.00070123,0.00772931,0.00141819,0.00084602,0.00494846,0.00654016,0
 .00524420,-0.04311763,-0.00074752,-0.00037977,0.00495410,-0.00004854,0
 .00000479,-0.00067402,-0.00019377,0.00043514,0.00753338,0.00006861,0.0
 0000743,-0.00035363,-0.00000712,-0.00027610,-0.00404502,-0.00697117,-0
 .00623267,0.02851451,-0.00124069,-0.00004047,0.00000192,-0.00486233,0.
 00202388,-0.00012358,0.00307184,0.02860198,-0.00151950,-0.05995119,0.0
 1744306,-0.00095311,-0.00387417,-0.00250536,0.00011741,0.00528878,-0.0
 2740739,0.00145734,0.00014467,-0.00001284,0.00000220,0.00005354,0.0013
 9462,-0.00007392,0.00104940,-0.00058070,0.00003742,0.05921595,0.000085
 13,0.00064308,-0.00009130,0.00233515,0.00078346,0.00035600,-0.00205701
 ,-0.00794164,0.00061822,0.01726524,-0.33621151,0.01579140,-0.00287867,
 0.00051658,0.00039175,0.00316087,-0.01111642,0.00078792,-0.00000388,-0
 .00006945,-0.00004977,-0.00017598,-0.00046046,0.00002183,0.00002822,0.
 00058051,-0.00024197,-0.01810591,0.35304232,-0.00000458,-0.00009093,-0
 .00106379,-0.00014015,0.00035569,0.00741095,0.00010822,0.00065853,0.00
 371979,-0.00094382,0.01579165,-0.04007060,0.00013728,0.00039150,0.0079
 3530,-0.00016565,0.00074788,0.00360482,0.00000166,-0.00004973,-0.00100
 395,0.00000939,0.00002395,-0.00004575,0.00000515,-0.00024273,-0.003963
 49,0.00100363,-0.01734323,0.02777527,0.00148135,-0.00055878,0.00002379
 ,0.00006253,-0.00083776,0.00004615,-0.00235179,-0.00332873,0.00016315,
 -0.01555284,0.01262654,-0.00069809,0.00270609,0.00000483,-0.00000216,-
 0.28614010,0.11338968,-0.00634213,0.00014298,-0.00019073,0.00000946,-0
 .00003153,0.00007771,-0.00000279,-0.00077599,0.00066008,-0.00003552,0.
 00095196,0.00008361,0.00000272,0.30118005,-0.00131222,-0.00558359,0.00
 062060,-0.00063264,-0.00050292,-0.00003868,-0.00344093,-0.00163037,0.0
 0050493,-0.01713500,0.01212273,-0.00038008,0.02706080,-0.00814197,0.00
 067630,0.11228966,-0.11425342,0.00402205,0.00139863,-0.00035702,0.0000
 5338,0.00007860,0.00011771,-0.00005905,-0.00087715,0.00044683,-0.00004
 474,0.00058630,0.00071077,-0.00027363,-0.11944127,0.11683477,0.0000636
 9,0.00062184,0.00610901,0.00003525,-0.00003887,-0.00121332,0.00016905,
 0.00050499,0.00793721,0.00088222,-0.00034080,0.00540654,-0.00143838,0.
 00064065,0.00388200,-0.00628335,0.00402313,-0.04150068,-0.00007493,0.0
 0005126,0.00061028,-0.00000299,-0.00005896,-0.00099207,0.00004605,-0.0
 0004270,-0.00037102,-0.00002402,-0.00027430,-0.00444158,0.00670077,-0.
 00489558,0.02784784,-0.03651877,-0.01296305,0.00064413,-0.00090006,0.0
 0999970,-0.00054251,-0.00045507,0.00294266,-0.00015616,0.01079600,0.00
 268095,-0.00013738,-0.16242892,-0.04716162,0.00238057,-0.00515117,-0.0
 2969218,0.00156787,0.00053312,0.00006975,0.00000195,-0.00005144,-0.000
 77061,0.00004016,-0.00014502,0.00012821,-0.00000510,0.00056082,0.00070
 929,-0.00003725,-0.00094263,0.00331571,-0.00017244,0.91914401,-0.00123
 775,0.01685417,-0.00103249,0.00825237,0.00316552,0.00027860,0.00409773
 ,-0.00281847,0.00011431,0.00141166,-0.00594702,0.00070801,-0.05582728,
 -0.12032979,0.00257029,-0.02816238,-0.02237309,0.00124660,0.00297682,-
 0.00113632,-0.00015092,0.00158602,0.00086810,-0.00001014,0.00015611,-0
 .00009629,-0.00007114,-0.00069087,-0.00006899,0.00002193,-0.00118066,-
 0.00199023,-0.00010263,-0.14573454,0.38438257,0.00002322,-0.00104775,-
 0.00248713,-0.00045047,0.00028135,0.00818772,-0.00021744,0.00011226,-0
 .00077606,-0.00007137,0.00070904,0.00730133,0.00284599,0.00258181,-0.0
 7071659,0.00148644,0.00124675,0.00172760,-0.00015239,-0.00015448,-0.00
 404445,-0.00008559,-0.00001275,0.00064658,-0.00000642,-0.00007097,-0.0
 0143042,0.00003682,0.00002408,0.00036756,0.00006710,-0.00009708,-0.003
 88463,0.00863804,-0.01169594,0.16791033,0.00631962,-0.00843530,0.00045
 173,-0.00379776,-0.00359750,0.00018790,-0.00132054,0.00097990,-0.00005
 364,-0.00211573,0.00033968,-0.00001970,-0.07005613,0.00822818,-0.00054
 679,-0.00019696,0.01019617,-0.00054160,0.00073220,0.00019461,-0.000009
 97,-0.00081527,-0.00043252,0.00002224,0.00000406,-0.00014519,0.0000073
 0,-0.00017232,-0.00032110,0.00001667,-0.00074002,-0.00163891,0.0000857
 1,-0.68639786,0.22405621,-0.01262757,0.76466874,-0.00202727,-0.0020808
 1,0.00028630,-0.00125099,0.00091531,-0.00014574,-0.00134299,0.00057301
 ,-0.00002956,0.00136265,0.00191882,-0.00014406,-0.00523092,0.01924196,
 0.00005011,-0.00342365,-0.00643907,0.00032621,-0.00095889,0.00016383,0
 .00002197,-0.00025716,-0.00020117,-0.00000944,-0.00019092,0.00011489,0
 .00000771,0.00005877,-0.00001603,0.00000265,-0.00205782,0.00131241,-0.
 00004490,0.26432255,-0.18870594,0.00668430,-0.29274199,0.23889608,0.00
 011146,0.00027877,0.00333755,0.00006427,-0.00014879,-0.00178990,0.0000
 6937,-0.00002650,0.00005263,-0.00007378,-0.00014530,-0.00082257,0.0001
 6382,0.00006576,0.02032373,0.00018131,0.00034228,-0.00023686,0.0000509
 7,0.00002352,0.00060121,0.00001313,-0.00000961,-0.00037286,0.00000980,
 0.00000775,0.00026395,-0.00000335,0.00000210,0.00003122,0.00010789,-0.
 00004404,0.00052565,-0.01476415,0.00663799,-0.06910347,0.01641825,-0.0
 1130529,0.03320767,-0.00597891,-0.00238911,0.00011975,0.00116323,-0.00
 076869,0.00004272,-0.00010222,-0.00066258,0.00003497,-0.00012648,-0.00
 114471,0.00006093,0.00344200,-0.01584765,0.00083364,-0.00267987,0.0001
 0777,-0.00001111,-0.00369259,-0.00466850,0.00024329,-0.00001517,0.0000
 4371,-0.00000227,-0.00000119,-0.00013673,0.00000730,-0.00023625,-0.000
 12496,0.00000673,0.00000995,-0.00025158,0.00001335,-0.03804300,-0.0097
 0343,0.00051365,-0.00611203,0.04373864,-0.00234899,0.05237253,-0.00009
 632,-0.00346916,0.00019238,-0.00063217,-0.00048424,0.00001310,-0.00031
 020,-0.00066814,0.00003577,-0.00072077,-0.00204663,0.00008440,0.004329
 82,-0.03189302,0.00221039,-0.00683262,0.00329814,-0.00010578,-0.002479
 15,-0.00159746,0.00009249,-0.00039367,-0.00010235,0.00000572,-0.000131
 96,0.00001233,-0.00000012,-0.00076507,-0.00039224,0.00000645,0.0007533
 1,0.00091430,-0.00004314,-0.04784683,-0.06180422,0.00143937,0.06331776
 ,-0.06569330,0.00432137,-0.00819216,0.16392599,-0.00000321,0.00018905,
 0.00013205,0.00003540,0.00001241,-0.00022454,0.00001653,0.00003572,0.0
 0001287,0.00003901,0.00008418,-0.00043569,-0.00023926,0.00218446,0.009
 49830,0.00035809,-0.00009710,0.00148138,0.00012716,0.00008964,0.000208
 55,0.00002117,0.00000605,0.00001148,0.00000695,-0.00000016,0.00001152,
 0.00004074,0.00000728,-0.00025576,-0.00004033,-0.00004440,0.00008476,0
 .00254226,0.00148553,-0.03369836,-0.00339054,0.00429973,0.01398206,0.0
 0048603,-0.00825239,0.00919137\\0.00012005,0.00090926,-0.00004927,-0.0
 0096629,0.00045495,-0.00002498,-0.00098446,-0.00085845,0.00004427,-0.0
 0007461,-0.00108808,0.00005798,0.00147279,0.00073420,-0.00004471,0.001
 27576,0.00003930,-0.00000082,-0.00011855,0.00177253,-0.00009435,-0.001
 49238,0.00078722,-0.00004368,-0.00137681,-0.00092243,0.00004704,0.0001
 3561,-0.00175720,0.00009362,0.00150977,-0.00082077,0.00004547,-0.01075
 810,0.00567878,-0.00028824,0.01139633,-0.00567913,0.00030392,-0.000139
 10,0.00074982,-0.00004626\\\@


 THE VALUE OF PHILOSOPHY IS, IN FACT, TO BE SOUGHT LARGELY IN ITS
 VERY UNCERTAINTY.  THE MAN WHO HAS NO TINCTURE OF PHILOSOPHY GOES
 THROUGH LIFE IMPRISONED IN THE PREJUDICES DERIVED FROM COMMON SENSE,
 FROM THE HABITUAL BELIEFS OF HIS AGE OR HIS NATION, AND FROM
 CONVICTIONS WHICH HAVE GROWN UP IN HIS MIND WITHOUT THE CO-OPERATION
 OR CONSENT OF HIS DELIBERATE REASON.  TO SUCH A MAN THE WORLD TENDS
 TO BE DEFINITE, FINITE, OBVIOUS; COMMON OBJECTS ROUSE NO QUESTIONS,
 AND UNFAMILIAR POSSIBILITIES ARE CONTEMPTUOUSLY REJECTED.

                             -- BERTRAND RUSSELL
 Job cpu time:       0 days  0 hours 21 minutes 59.4 seconds.
 File lengths (MBytes):  RWF=    123 Int=      0 D2E=      0 Chk=      9 Scr=      1
 Normal termination of Gaussian 09 at Tue May  8 03:09:37 2018.
 Read checkpoint file 1.chk
 Write formatted file 1.fchk
 FChkPn:  Coordinates translated and rotated.
 FChkPn:  Coordinates match /B/ after translation and rotation.
