 Entering Gaussian System, Link 0=g09
 Initial command:
 /ihome/crc/build/g09/g09-D.01/TAR/g09/l1.exe "/scratch/slurm-1217964/Gau-365321.inp" -scrdir="/scratch/slurm-1217964/"
 Entering Link 1 = /ihome/crc/build/g09/g09-D.01/TAR/g09/l1.exe PID=    365322.
  
 Copyright (c) 1988,1990,1992,1993,1995,1998,2003,2009,2013,
            Gaussian, Inc.  All Rights Reserved.
  
 This is part of the Gaussian(R) 09 program.  It is based on
 the Gaussian(R) 03 system (copyright 2003, Gaussian, Inc.),
 the Gaussian(R) 98 system (copyright 1998, Gaussian, Inc.),
 the Gaussian(R) 94 system (copyright 1995, Gaussian, Inc.),
 the Gaussian 92(TM) system (copyright 1992, Gaussian, Inc.),
 the Gaussian 90(TM) system (copyright 1990, Gaussian, Inc.),
 the Gaussian 88(TM) system (copyright 1988, Gaussian, Inc.),
 the Gaussian 86(TM) system (copyright 1986, Carnegie Mellon
 University), and the Gaussian 82(TM) system (copyright 1983,
 Carnegie Mellon University). Gaussian is a federally registered
 trademark of Gaussian, Inc.
  
 This software contains proprietary and confidential information,
 including trade secrets, belonging to Gaussian, Inc.
  
 This software is provided under written license and may be
 used, copied, transmitted, or stored only in accord with that
 written license.
  
 The following legend is applicable only to US Government
 contracts under FAR:
  
                    RESTRICTED RIGHTS LEGEND
  
 Use, reproduction and disclosure by the US Government is
 subject to restrictions as set forth in subparagraphs (a)
 and (c) of the Commercial Computer Software - Restricted
 Rights clause in FAR 52.227-19.
  
 Gaussian, Inc.
 340 Quinnipiac St., Bldg. 40, Wallingford CT 06492
  
  
 ---------------------------------------------------------------
 Warning -- This program may not be used in any manner that
 competes with the business of Gaussian, Inc. or will provide
 assistance to any competitor of Gaussian, Inc.  The licensee
 of this program is prohibited from giving any competitor of
 Gaussian, Inc. access to this program.  By using this program,
 the user acknowledges that Gaussian, Inc. is engaged in the
 business of creating and licensing software in the field of
 computational chemistry and represents and warrants to the
 licensee that it is not a competitor of Gaussian, Inc. and that
 it will not use this program in any manner prohibited above.
 ---------------------------------------------------------------
  

 Cite this work as:
 Gaussian 09, Revision D.01,
 M. J. Frisch, G. W. Trucks, H. B. Schlegel, G. E. Scuseria, 
 M. A. Robb, J. R. Cheeseman, G. Scalmani, V. Barone, B. Mennucci, 
 G. A. Petersson, H. Nakatsuji, M. Caricato, X. Li, H. P. Hratchian, 
 A. F. Izmaylov, J. Bloino, G. Zheng, J. L. Sonnenberg, M. Hada, 
 M. Ehara, K. Toyota, R. Fukuda, J. Hasegawa, M. Ishida, T. Nakajima, 
 Y. Honda, O. Kitao, H. Nakai, T. Vreven, J. A. Montgomery, Jr., 
 J. E. Peralta, F. Ogliaro, M. Bearpark, J. J. Heyd, E. Brothers, 
 K. N. Kudin, V. N. Staroverov, T. Keith, R. Kobayashi, J. Normand, 
 K. Raghavachari, A. Rendell, J. C. Burant, S. S. Iyengar, J. Tomasi, 
 M. Cossi, N. Rega, J. M. Millam, M. Klene, J. E. Knox, J. B. Cross, 
 V. Bakken, C. Adamo, J. Jaramillo, R. Gomperts, R. E. Stratmann, 
 O. Yazyev, A. J. Austin, R. Cammi, C. Pomelli, J. W. Ochterski, 
 R. L. Martin, K. Morokuma, V. G. Zakrzewski, G. A. Voth, 
 P. Salvador, J. J. Dannenberg, S. Dapprich, A. D. Daniels, 
 O. Farkas, J. B. Foresman, J. V. Ortiz, J. Cioslowski, 
 and D. J. Fox, Gaussian, Inc., Wallingford CT, 2013.
 
 ******************************************
 Gaussian 09:  EM64L-G09RevD.01 24-Apr-2013
                10-Jul-2018 
 ******************************************
 %NProc=16
 Will use up to   16 processors via shared memory.
 %Mem=24GB
 %chk=3c.chk
 ---------------------------------------------------------
 #p opt freq m062x/6-31+g(d) scrf=(smd,solvent=chloroform)
 ---------------------------------------------------------
 1/14=-1,18=20,19=15,26=3,38=1/1,3;
 2/9=110,12=2,17=6,18=5,40=1/2;
 3/5=1,6=6,7=11,11=2,16=1,25=1,30=1,70=32201,71=1,72=7,74=-55/1,2,3;
 4//1;
 5/5=2,38=5,53=7/2;
 6/7=2,8=2,9=2,10=2,28=1/1;
 7//1,2,3,16;
 1/14=-1,18=20,19=15,26=3/3(2);
 2/9=110/2;
 99//99;
 2/9=110/2;
 3/5=1,6=6,7=11,11=2,16=1,25=1,30=1,70=32205,71=1,72=7,74=-55/1,2,3;
 4/5=5,16=3,69=1/1;
 5/5=2,38=5,53=7/2;
 7//1,2,3,16;
 1/14=-1,18=20,19=15,26=3/3(-5);
 2/9=110/2;
 6/7=2,8=2,9=2,10=2,19=2,28=1/1;
 99/9=1/99;
 Leave Link    1 at Tue Jul 10 17:47:11 2018, MaxMem=  3221225472 cpu:         0.4
 (Enter /ihome/crc/build/g09/g09-D.01/TAR/g09/l101.exe)
 --
 3c
 --
 Symbolic Z-matrix:
 Charge =  0 Multiplicity = 1
 C                     5.15405   0.11399  -0.3457 
 C                     5.31873  -0.56213   0.86536 
 C                     3.99357   0.84104  -0.58028 
 C                     2.98836   0.89049   0.39743 
 C                     3.15587   0.21749   1.61172 
 C                     4.32223  -0.50867   1.83922 
 N                    -1.85044  -0.96794   0.04188 
 C                    -2.67961   0.07495   0.00255 
 C                    -2.5196    1.10524  -0.93686 
 C                    -1.46163   1.05714  -1.83589 
 C                    -0.58654  -0.03325  -1.75724 
 C                    -0.81266  -1.03148  -0.8128 
 H                     5.92878   0.07376  -1.10564 
 H                     6.22506  -1.13182   1.05098 
 H                     2.39064   0.25045   2.37973 
 H                     4.45304  -1.03151   2.78174 
 H                     3.85121   1.36988  -1.5176 
 C                    -3.83593   0.10946   1.0057 
 H                    -3.21007   1.94454  -0.96742 
 C                     0.04544  -2.29315  -0.71383 
 C                    -1.23646   2.15155  -2.84451 
 H                     0.25475  -0.08374  -2.44336 
 C                     1.78523   1.68758   0.05842 
 O                     1.63999   2.34076  -0.93042 
 Cl                    0.46118   1.65297   1.27447 
 H                    -2.12438   2.77997  -2.95426 
 H                    -0.98116   1.73551  -3.82458 
 H                    -0.4022    2.78854  -2.5287 
 C                    -0.78161  -3.46803  -1.26474 
 C                     0.3886   -2.58406   0.7551 
 C                     1.3405   -2.17819  -1.52104 
 C                    -5.1671    0.03883   0.23994 
 C                    -3.78404   1.4169    1.81167 
 C                    -3.76051  -1.07224   1.97671 
 H                    -3.87729   2.29959   1.16953 
 H                    -2.84239   1.49953   2.36681 
 H                    -4.60808   1.44349   2.53471 
 H                    -5.29453   0.89623  -0.43 
 H                    -6.00728   0.03627   0.94561 
 H                    -5.22429  -0.87768  -0.35856 
 H                    -3.83884  -2.02814   1.44977 
 H                    -4.58682  -1.00556   2.69465 
 H                    -2.81957  -1.06676   2.53702 
 H                     1.14428  -2.10615  -2.59665 
 H                     1.95592  -3.07049  -1.3562 
 H                     1.93435  -1.30586  -1.22018 
 H                    -0.52211  -2.74874   1.33766 
 H                     0.94984  -1.76902   1.22929 
 H                     1.00551  -3.48869   0.81038 
 H                    -1.70971  -3.58929  -0.69581 
 H                    -0.20932  -4.40128  -1.19349 
 H                    -1.04348  -3.30473  -2.31675 
 
 Add virtual bond connecting atoms H28        and O24        Dist= 4.97D+00.
 Add virtual bond connecting atoms H48        and H15        Dist= 5.17D+00.
 NAtoms=     52 NQM=       52 NQMF=       0 NMMI=      0 NMMIF=      0
                NMic=       0 NMicF=      0.
                    Isotopes and Nuclear Properties:
 (Nuclear quadrupole moments (NQMom) in fm**2, nuclear magnetic moments (NMagM)
  in nuclear magnetons)

  Atom         1           2           3           4           5           6           7           8           9          10
 IAtWgt=          12          12          12          12          12          12          14          12          12          12
 AtmWgt=  12.0000000  12.0000000  12.0000000  12.0000000  12.0000000  12.0000000  14.0030740  12.0000000  12.0000000  12.0000000
 NucSpn=           0           0           0           0           0           0           2           0           0           0
 AtZEff=   0.0000000   0.0000000   0.0000000   0.0000000   0.0000000   0.0000000   0.0000000   0.0000000   0.0000000   0.0000000
 NQMom=    0.0000000   0.0000000   0.0000000   0.0000000   0.0000000   0.0000000   2.0440000   0.0000000   0.0000000   0.0000000
 NMagM=    0.0000000   0.0000000   0.0000000   0.0000000   0.0000000   0.0000000   0.4037610   0.0000000   0.0000000   0.0000000
 AtZNuc=   6.0000000   6.0000000   6.0000000   6.0000000   6.0000000   6.0000000   7.0000000   6.0000000   6.0000000   6.0000000

  Atom        11          12          13          14          15          16          17          18          19          20
 IAtWgt=          12          12           1           1           1           1           1          12           1          12
 AtmWgt=  12.0000000  12.0000000   1.0078250   1.0078250   1.0078250   1.0078250   1.0078250  12.0000000   1.0078250  12.0000000
 NucSpn=           0           0           1           1           1           1           1           0           1           0
 AtZEff=   0.0000000   0.0000000   0.0000000   0.0000000   0.0000000   0.0000000   0.0000000   0.0000000   0.0000000   0.0000000
 NQMom=    0.0000000   0.0000000   0.0000000   0.0000000   0.0000000   0.0000000   0.0000000   0.0000000   0.0000000   0.0000000
 NMagM=    0.0000000   0.0000000   2.7928460   2.7928460   2.7928460   2.7928460   2.7928460   0.0000000   2.7928460   0.0000000
 AtZNuc=   6.0000000   6.0000000   1.0000000   1.0000000   1.0000000   1.0000000   1.0000000   6.0000000   1.0000000   6.0000000

  Atom        21          22          23          24          25          26          27          28          29          30
 IAtWgt=          12           1          12          16          35           1           1           1          12          12
 AtmWgt=  12.0000000   1.0078250  12.0000000  15.9949146  34.9688527   1.0078250   1.0078250   1.0078250  12.0000000  12.0000000
 NucSpn=           0           1           0           0           3           1           1           1           0           0
 AtZEff=   0.0000000   0.0000000   0.0000000   0.0000000   0.0000000   0.0000000   0.0000000   0.0000000   0.0000000   0.0000000
 NQMom=    0.0000000   0.0000000   0.0000000   0.0000000  -8.1650000   0.0000000   0.0000000   0.0000000   0.0000000   0.0000000
 NMagM=    0.0000000   2.7928460   0.0000000   0.0000000   0.8218740   2.7928460   2.7928460   2.7928460   0.0000000   0.0000000
 AtZNuc=   6.0000000   1.0000000   6.0000000   8.0000000  17.0000000   1.0000000   1.0000000   1.0000000   6.0000000   6.0000000

  Atom        31          32          33          34          35          36          37          38          39          40
 IAtWgt=          12          12          12          12           1           1           1           1           1           1
 AtmWgt=  12.0000000  12.0000000  12.0000000  12.0000000   1.0078250   1.0078250   1.0078250   1.0078250   1.0078250   1.0078250
 NucSpn=           0           0           0           0           1           1           1           1           1           1
 AtZEff=   0.0000000   0.0000000   0.0000000   0.0000000   0.0000000   0.0000000   0.0000000   0.0000000   0.0000000   0.0000000
 NQMom=    0.0000000   0.0000000   0.0000000   0.0000000   0.0000000   0.0000000   0.0000000   0.0000000   0.0000000   0.0000000
 NMagM=    0.0000000   0.0000000   0.0000000   0.0000000   2.7928460   2.7928460   2.7928460   2.7928460   2.7928460   2.7928460
 AtZNuc=   6.0000000   6.0000000   6.0000000   6.0000000   1.0000000   1.0000000   1.0000000   1.0000000   1.0000000   1.0000000

  Atom        41          42          43          44          45          46          47          48          49          50
 IAtWgt=           1           1           1           1           1           1           1           1           1           1
 AtmWgt=   1.0078250   1.0078250   1.0078250   1.0078250   1.0078250   1.0078250   1.0078250   1.0078250   1.0078250   1.0078250
 NucSpn=           1           1           1           1           1           1           1           1           1           1
 AtZEff=   0.0000000   0.0000000   0.0000000   0.0000000   0.0000000   0.0000000   0.0000000   0.0000000   0.0000000   0.0000000
 NQMom=    0.0000000   0.0000000   0.0000000   0.0000000   0.0000000   0.0000000   0.0000000   0.0000000   0.0000000   0.0000000
 NMagM=    2.7928460   2.7928460   2.7928460   2.7928460   2.7928460   2.7928460   2.7928460   2.7928460   2.7928460   2.7928460
 AtZNuc=   1.0000000   1.0000000   1.0000000   1.0000000   1.0000000   1.0000000   1.0000000   1.0000000   1.0000000   1.0000000

  Atom        51          52
 IAtWgt=           1           1
 AtmWgt=   1.0078250   1.0078250
 NucSpn=           1           1
 AtZEff=   0.0000000   0.0000000
 NQMom=    0.0000000   0.0000000
 NMagM=    2.7928460   2.7928460
 AtZNuc=   1.0000000   1.0000000
 Leave Link  101 at Tue Jul 10 17:47:12 2018, MaxMem=  3221225472 cpu:         5.2
 (Enter /ihome/crc/build/g09/g09-D.01/TAR/g09/l103.exe)

 GradGradGradGradGradGradGradGradGradGradGradGradGradGradGradGradGradGrad
 Berny optimization.
 Initialization pass.
                           ----------------------------
                           !    Initial Parameters    !
                           ! (Angstroms and Degrees)  !
 --------------------------                            --------------------------
 ! Name  Definition              Value          Derivative Info.                !
 --------------------------------------------------------------------------------
 ! R1    R(1,2)                  1.3968         estimate D2E/DX2                !
 ! R2    R(1,3)                  1.3894         estimate D2E/DX2                !
 ! R3    R(1,13)                 1.086          estimate D2E/DX2                !
 ! R4    R(2,6)                  1.3944         estimate D2E/DX2                !
 ! R5    R(2,14)                 1.0865         estimate D2E/DX2                !
 ! R6    R(3,4)                  1.4032         estimate D2E/DX2                !
 ! R7    R(3,17)                 1.0856         estimate D2E/DX2                !
 ! R8    R(4,5)                  1.3984         estimate D2E/DX2                !
 ! R9    R(4,23)                 1.4825         estimate D2E/DX2                !
 ! R10   R(5,6)                  1.3926         estimate D2E/DX2                !
 ! R11   R(5,15)                 1.0847         estimate D2E/DX2                !
 ! R12   R(6,16)                 1.0857         estimate D2E/DX2                !
 ! R13   R(7,8)                  1.3329         estimate D2E/DX2                !
 ! R14   R(7,12)                 1.3459         estimate D2E/DX2                !
 ! R15   R(8,9)                  1.4034         estimate D2E/DX2                !
 ! R16   R(8,18)                 1.5312         estimate D2E/DX2                !
 ! R17   R(9,10)                 1.3892         estimate D2E/DX2                !
 ! R18   R(9,19)                 1.0872         estimate D2E/DX2                !
 ! R19   R(10,11)                1.4003         estimate D2E/DX2                !
 ! R20   R(10,21)                1.5052         estimate D2E/DX2                !
 ! R21   R(11,12)                1.3927         estimate D2E/DX2                !
 ! R22   R(11,22)                1.0868         estimate D2E/DX2                !
 ! R23   R(12,20)                1.529          estimate D2E/DX2                !
 ! R24   R(15,48)                2.7345         estimate D2E/DX2                !
 ! R25   R(18,32)                1.5373         estimate D2E/DX2                !
 ! R26   R(18,33)                1.5368         estimate D2E/DX2                !
 ! R27   R(18,34)                1.5313         estimate D2E/DX2                !
 ! R28   R(20,29)                1.5388         estimate D2E/DX2                !
 ! R29   R(20,30)                1.5363         estimate D2E/DX2                !
 ! R30   R(20,31)                1.5304         estimate D2E/DX2                !
 ! R31   R(21,26)                1.0933         estimate D2E/DX2                !
 ! R32   R(21,27)                1.0949         estimate D2E/DX2                !
 ! R33   R(21,28)                1.0961         estimate D2E/DX2                !
 ! R34   R(23,24)                1.194          estimate D2E/DX2                !
 ! R35   R(23,25)                1.7981         estimate D2E/DX2                !
 ! R36   R(24,28)                2.6316         estimate D2E/DX2                !
 ! R37   R(29,50)                1.0953         estimate D2E/DX2                !
 ! R38   R(29,51)                1.0971         estimate D2E/DX2                !
 ! R39   R(29,52)                1.0963         estimate D2E/DX2                !
 ! R40   R(30,47)                1.0936         estimate D2E/DX2                !
 ! R41   R(30,48)                1.0973         estimate D2E/DX2                !
 ! R42   R(30,49)                1.0964         estimate D2E/DX2                !
 ! R43   R(31,44)                1.0957         estimate D2E/DX2                !
 ! R44   R(31,45)                1.0964         estimate D2E/DX2                !
 ! R45   R(31,46)                1.0973         estimate D2E/DX2                !
 ! R46   R(32,38)                1.0955         estimate D2E/DX2                !
 ! R47   R(32,39)                1.0972         estimate D2E/DX2                !
 ! R48   R(32,40)                1.0961         estimate D2E/DX2                !
 ! R49   R(33,35)                1.0955         estimate D2E/DX2                !
 ! R50   R(33,36)                1.0962         estimate D2E/DX2                !
 ! R51   R(33,37)                1.0966         estimate D2E/DX2                !
 ! R52   R(34,41)                1.0943         estimate D2E/DX2                !
 ! R53   R(34,42)                1.0967         estimate D2E/DX2                !
 ! R54   R(34,43)                1.0951         estimate D2E/DX2                !
 ! A1    A(2,1,3)              119.8799         estimate D2E/DX2                !
 ! A2    A(2,1,13)             120.3114         estimate D2E/DX2                !
 ! A3    A(3,1,13)             119.8086         estimate D2E/DX2                !
 ! A4    A(1,2,6)              120.1818         estimate D2E/DX2                !
 ! A5    A(1,2,14)             120.0201         estimate D2E/DX2                !
 ! A6    A(6,2,14)             119.798          estimate D2E/DX2                !
 ! A7    A(1,3,4)              119.9452         estimate D2E/DX2                !
 ! A8    A(1,3,17)             120.6796         estimate D2E/DX2                !
 ! A9    A(4,3,17)             119.3743         estimate D2E/DX2                !
 ! A10   A(3,4,5)              120.1514         estimate D2E/DX2                !
 ! A11   A(3,4,23)             116.168          estimate D2E/DX2                !
 ! A12   A(5,4,23)             123.6798         estimate D2E/DX2                !
 ! A13   A(4,5,6)              119.546          estimate D2E/DX2                !
 ! A14   A(4,5,15)             121.0449         estimate D2E/DX2                !
 ! A15   A(6,5,15)             119.409          estimate D2E/DX2                !
 ! A16   A(2,6,5)              120.2941         estimate D2E/DX2                !
 ! A17   A(2,6,16)             120.1145         estimate D2E/DX2                !
 ! A18   A(5,6,16)             119.5912         estimate D2E/DX2                !
 ! A19   A(8,7,12)             119.8575         estimate D2E/DX2                !
 ! A20   A(7,8,9)              121.5478         estimate D2E/DX2                !
 ! A21   A(7,8,18)             117.909          estimate D2E/DX2                !
 ! A22   A(9,8,18)             120.5367         estimate D2E/DX2                !
 ! A23   A(8,9,10)             119.6436         estimate D2E/DX2                !
 ! A24   A(8,9,19)             120.8713         estimate D2E/DX2                !
 ! A25   A(10,9,19)            119.4842         estimate D2E/DX2                !
 ! A26   A(9,10,11)            117.8093         estimate D2E/DX2                !
 ! A27   A(9,10,21)            121.4928         estimate D2E/DX2                !
 ! A28   A(11,10,21)           120.6837         estimate D2E/DX2                !
 ! A29   A(10,11,12)           119.6532         estimate D2E/DX2                !
 ! A30   A(10,11,22)           118.978          estimate D2E/DX2                !
 ! A31   A(12,11,22)           121.3676         estimate D2E/DX2                !
 ! A32   A(7,12,11)            121.4658         estimate D2E/DX2                !
 ! A33   A(7,12,20)            115.5036         estimate D2E/DX2                !
 ! A34   A(11,12,20)           122.9708         estimate D2E/DX2                !
 ! A35   A(5,15,48)             92.9459         estimate D2E/DX2                !
 ! A36   A(8,18,32)            109.0585         estimate D2E/DX2                !
 ! A37   A(8,18,33)            109.7103         estimate D2E/DX2                !
 ! A38   A(8,18,34)            111.1514         estimate D2E/DX2                !
 ! A39   A(32,18,33)           109.2421         estimate D2E/DX2                !
 ! A40   A(32,18,34)           108.8471         estimate D2E/DX2                !
 ! A41   A(33,18,34)           108.8026         estimate D2E/DX2                !
 ! A42   A(12,20,29)           107.7707         estimate D2E/DX2                !
 ! A43   A(12,20,30)           110.09           estimate D2E/DX2                !
 ! A44   A(12,20,31)           112.2589         estimate D2E/DX2                !
 ! A45   A(29,20,30)           108.5297         estimate D2E/DX2                !
 ! A46   A(29,20,31)           108.8654         estimate D2E/DX2                !
 ! A47   A(30,20,31)           109.2407         estimate D2E/DX2                !
 ! A48   A(10,21,26)           111.3269         estimate D2E/DX2                !
 ! A49   A(10,21,27)           111.0025         estimate D2E/DX2                !
 ! A50   A(10,21,28)           110.0791         estimate D2E/DX2                !
 ! A51   A(26,21,27)           108.5366         estimate D2E/DX2                !
 ! A52   A(26,21,28)           108.2407         estimate D2E/DX2                !
 ! A53   A(27,21,28)           107.5323         estimate D2E/DX2                !
 ! A54   A(4,23,24)            125.6088         estimate D2E/DX2                !
 ! A55   A(4,23,25)            115.6327         estimate D2E/DX2                !
 ! A56   A(24,23,25)           118.7557         estimate D2E/DX2                !
 ! A57   A(23,24,28)           133.6675         estimate D2E/DX2                !
 ! A58   A(21,28,24)           131.8149         estimate D2E/DX2                !
 ! A59   A(20,29,50)           110.7306         estimate D2E/DX2                !
 ! A60   A(20,29,51)           110.2354         estimate D2E/DX2                !
 ! A61   A(20,29,52)           110.9891         estimate D2E/DX2                !
 ! A62   A(50,29,51)           108.3065         estimate D2E/DX2                !
 ! A63   A(50,29,52)           108.2107         estimate D2E/DX2                !
 ! A64   A(51,29,52)           108.2784         estimate D2E/DX2                !
 ! A65   A(20,30,47)           110.6009         estimate D2E/DX2                !
 ! A66   A(20,30,48)           112.7543         estimate D2E/DX2                !
 ! A67   A(20,30,49)           109.2778         estimate D2E/DX2                !
 ! A68   A(47,30,48)           107.9135         estimate D2E/DX2                !
 ! A69   A(47,30,49)           108.5113         estimate D2E/DX2                !
 ! A70   A(48,30,49)           107.6549         estimate D2E/DX2                !
 ! A71   A(20,31,44)           111.7878         estimate D2E/DX2                !
 ! A72   A(20,31,45)           109.5461         estimate D2E/DX2                !
 ! A73   A(20,31,46)           111.9051         estimate D2E/DX2                !
 ! A74   A(44,31,45)           107.5539         estimate D2E/DX2                !
 ! A75   A(44,31,46)           108.2878         estimate D2E/DX2                !
 ! A76   A(45,31,46)           107.5769         estimate D2E/DX2                !
 ! A77   A(18,32,38)           111.6763         estimate D2E/DX2                !
 ! A78   A(18,32,39)           110.0476         estimate D2E/DX2                !
 ! A79   A(18,32,40)           110.8282         estimate D2E/DX2                !
 ! A80   A(38,32,39)           107.8214         estimate D2E/DX2                !
 ! A81   A(38,32,40)           108.3263         estimate D2E/DX2                !
 ! A82   A(39,32,40)           108.0157         estimate D2E/DX2                !
 ! A83   A(18,33,35)           112.0372         estimate D2E/DX2                !
 ! A84   A(18,33,36)           111.0216         estimate D2E/DX2                !
 ! A85   A(18,33,37)           109.9412         estimate D2E/DX2                !
 ! A86   A(35,33,36)           108.0116         estimate D2E/DX2                !
 ! A87   A(35,33,37)           107.636          estimate D2E/DX2                !
 ! A88   A(36,33,37)           108.045          estimate D2E/DX2                !
 ! A89   A(18,34,41)           111.4208         estimate D2E/DX2                !
 ! A90   A(18,34,42)           109.3343         estimate D2E/DX2                !
 ! A91   A(18,34,43)           111.2771         estimate D2E/DX2                !
 ! A92   A(41,34,42)           108.3256         estimate D2E/DX2                !
 ! A93   A(41,34,43)           108.1936         estimate D2E/DX2                !
 ! A94   A(42,34,43)           108.1881         estimate D2E/DX2                !
 ! A95   L(15,48,30,8,-1)      180.693          estimate D2E/DX2                !
 ! A96   L(15,48,30,8,-2)      179.0834         estimate D2E/DX2                !
 ! D1    D(3,1,2,6)             -0.0348         estimate D2E/DX2                !
 ! D2    D(3,1,2,14)           179.9658         estimate D2E/DX2                !
 ! D3    D(13,1,2,6)          -179.9983         estimate D2E/DX2                !
 ! D4    D(13,1,2,14)            0.0023         estimate D2E/DX2                !
 ! D5    D(2,1,3,4)             -0.2236         estimate D2E/DX2                !
 ! D6    D(2,1,3,17)          -179.8839         estimate D2E/DX2                !
 ! D7    D(13,1,3,4)           179.74           estimate D2E/DX2                !
 ! D8    D(13,1,3,17)            0.0797         estimate D2E/DX2                !
 ! D9    D(1,2,6,5)              0.0562         estimate D2E/DX2                !
 ! D10   D(1,2,6,16)          -179.764          estimate D2E/DX2                !
 ! D11   D(14,2,6,5)          -179.9444         estimate D2E/DX2                !
 ! D12   D(14,2,6,16)            0.2354         estimate D2E/DX2                !
 ! D13   D(1,3,4,5)              0.4628         estimate D2E/DX2                !
 ! D14   D(1,3,4,23)          -179.8689         estimate D2E/DX2                !
 ! D15   D(17,3,4,5)          -179.8724         estimate D2E/DX2                !
 ! D16   D(17,3,4,23)           -0.2041         estimate D2E/DX2                !
 ! D17   D(3,4,5,6)             -0.44           estimate D2E/DX2                !
 ! D18   D(3,4,5,15)           179.6597         estimate D2E/DX2                !
 ! D19   D(23,4,5,6)           179.9177         estimate D2E/DX2                !
 ! D20   D(23,4,5,15)            0.0174         estimate D2E/DX2                !
 ! D21   D(3,4,23,24)           -4.4887         estimate D2E/DX2                !
 ! D22   D(3,4,23,25)          176.1245         estimate D2E/DX2                !
 ! D23   D(5,4,23,24)          175.1667         estimate D2E/DX2                !
 ! D24   D(5,4,23,25)           -4.2202         estimate D2E/DX2                !
 ! D25   D(4,5,6,2)              0.1813         estimate D2E/DX2                !
 ! D26   D(4,5,6,16)          -179.9976         estimate D2E/DX2                !
 ! D27   D(15,5,6,2)          -179.9167         estimate D2E/DX2                !
 ! D28   D(15,5,6,16)           -0.0956         estimate D2E/DX2                !
 ! D29   D(4,5,15,48)           83.3203         estimate D2E/DX2                !
 ! D30   D(6,5,15,48)          -96.5802         estimate D2E/DX2                !
 ! D31   D(12,7,8,9)             1.6018         estimate D2E/DX2                !
 ! D32   D(12,7,8,18)         -179.3153         estimate D2E/DX2                !
 ! D33   D(8,7,12,11)           -0.6864         estimate D2E/DX2                !
 ! D34   D(8,7,12,20)         -177.9525         estimate D2E/DX2                !
 ! D35   D(7,8,9,10)            -1.1255         estimate D2E/DX2                !
 ! D36   D(7,8,9,19)           179.2051         estimate D2E/DX2                !
 ! D37   D(18,8,9,10)          179.8154         estimate D2E/DX2                !
 ! D38   D(18,8,9,19)            0.146          estimate D2E/DX2                !
 ! D39   D(7,8,18,32)         -115.8782         estimate D2E/DX2                !
 ! D40   D(7,8,18,33)          124.5087         estimate D2E/DX2                !
 ! D41   D(7,8,18,34)            4.1303         estimate D2E/DX2                !
 ! D42   D(9,8,18,32)           63.2144         estimate D2E/DX2                !
 ! D43   D(9,8,18,33)          -56.3987         estimate D2E/DX2                !
 ! D44   D(9,8,18,34)         -176.7771         estimate D2E/DX2                !
 ! D45   D(8,9,10,11)           -0.2616         estimate D2E/DX2                !
 ! D46   D(8,9,10,21)         -178.898          estimate D2E/DX2                !
 ! D47   D(19,9,10,11)         179.4125         estimate D2E/DX2                !
 ! D48   D(19,9,10,21)           0.776          estimate D2E/DX2                !
 ! D49   D(9,10,11,12)           1.1322         estimate D2E/DX2                !
 ! D50   D(9,10,11,22)        -179.2523         estimate D2E/DX2                !
 ! D51   D(21,10,11,12)        179.7801         estimate D2E/DX2                !
 ! D52   D(21,10,11,22)         -0.6044         estimate D2E/DX2                !
 ! D53   D(9,10,21,26)         -16.0346         estimate D2E/DX2                !
 ! D54   D(9,10,21,27)        -137.0625         estimate D2E/DX2                !
 ! D55   D(9,10,21,28)         103.9972         estimate D2E/DX2                !
 ! D56   D(11,10,21,26)        165.3679         estimate D2E/DX2                !
 ! D57   D(11,10,21,27)         44.3399         estimate D2E/DX2                !
 ! D58   D(11,10,21,28)        -74.6004         estimate D2E/DX2                !
 ! D59   D(10,11,12,7)          -0.6982         estimate D2E/DX2                !
 ! D60   D(10,11,12,20)        176.3605         estimate D2E/DX2                !
 ! D61   D(22,11,12,7)         179.6957         estimate D2E/DX2                !
 ! D62   D(22,11,12,20)         -3.2456         estimate D2E/DX2                !
 ! D63   D(7,12,20,29)          70.8152         estimate D2E/DX2                !
 ! D64   D(7,12,20,30)         -47.3857         estimate D2E/DX2                !
 ! D65   D(7,12,20,31)        -169.3127         estimate D2E/DX2                !
 ! D66   D(11,12,20,29)       -106.4053         estimate D2E/DX2                !
 ! D67   D(11,12,20,30)        135.3939         estimate D2E/DX2                !
 ! D68   D(11,12,20,31)         13.4668         estimate D2E/DX2                !
 ! D69   D(5,15,30,20)         -54.8698         estimate D2E/DX2                !
 ! D70   D(5,15,30,47)        -177.6835         estimate D2E/DX2                !
 ! D71   D(5,15,30,49)          65.2308         estimate D2E/DX2                !
 ! D72   D(8,18,32,38)         -61.7484         estimate D2E/DX2                !
 ! D73   D(8,18,32,39)         178.5408         estimate D2E/DX2                !
 ! D74   D(8,18,32,40)          59.1301         estimate D2E/DX2                !
 ! D75   D(33,18,32,38)         58.1542         estimate D2E/DX2                !
 ! D76   D(33,18,32,39)        -61.5565         estimate D2E/DX2                !
 ! D77   D(33,18,32,40)        179.0327         estimate D2E/DX2                !
 ! D78   D(34,18,32,38)        176.8313         estimate D2E/DX2                !
 ! D79   D(34,18,32,39)         57.1205         estimate D2E/DX2                !
 ! D80   D(34,18,32,40)        -62.2902         estimate D2E/DX2                !
 ! D81   D(8,18,33,35)          60.6199         estimate D2E/DX2                !
 ! D82   D(8,18,33,36)         -60.2387         estimate D2E/DX2                !
 ! D83   D(8,18,33,37)        -179.7399         estimate D2E/DX2                !
 ! D84   D(32,18,33,35)        -58.8808         estimate D2E/DX2                !
 ! D85   D(32,18,33,36)       -179.7393         estimate D2E/DX2                !
 ! D86   D(32,18,33,37)         60.7594         estimate D2E/DX2                !
 ! D87   D(34,18,33,35)       -177.5855         estimate D2E/DX2                !
 ! D88   D(34,18,33,36)         61.556          estimate D2E/DX2                !
 ! D89   D(34,18,33,37)        -57.9453         estimate D2E/DX2                !
 ! D90   D(8,18,34,41)         -61.6045         estimate D2E/DX2                !
 ! D91   D(8,18,34,42)         178.6873         estimate D2E/DX2                !
 ! D92   D(8,18,34,43)          59.2397         estimate D2E/DX2                !
 ! D93   D(32,18,34,41)         58.5294         estimate D2E/DX2                !
 ! D94   D(32,18,34,42)        -61.1788         estimate D2E/DX2                !
 ! D95   D(32,18,34,43)        179.3737         estimate D2E/DX2                !
 ! D96   D(33,18,34,41)        177.4819         estimate D2E/DX2                !
 ! D97   D(33,18,34,42)         57.7737         estimate D2E/DX2                !
 ! D98   D(33,18,34,43)        -61.6739         estimate D2E/DX2                !
 ! D99   D(12,20,29,50)        -59.0091         estimate D2E/DX2                !
 ! D100  D(12,20,29,51)       -178.8409         estimate D2E/DX2                !
 ! D101  D(12,20,29,52)         61.1959         estimate D2E/DX2                !
 ! D102  D(30,20,29,50)         60.1903         estimate D2E/DX2                !
 ! D103  D(30,20,29,51)        -59.6414         estimate D2E/DX2                !
 ! D104  D(30,20,29,52)       -179.6047         estimate D2E/DX2                !
 ! D105  D(31,20,29,50)        178.9943         estimate D2E/DX2                !
 ! D106  D(31,20,29,51)         59.1625         estimate D2E/DX2                !
 ! D107  D(31,20,29,52)        -60.8007         estimate D2E/DX2                !
 ! D108  D(12,20,30,47)         60.7544         estimate D2E/DX2                !
 ! D109  D(12,20,30,48)        -60.1752         estimate D2E/DX2                !
 ! D110  D(12,20,30,49)       -179.8524         estimate D2E/DX2                !
 ! D111  D(29,20,30,47)        -56.9778         estimate D2E/DX2                !
 ! D112  D(29,20,30,48)       -177.9074         estimate D2E/DX2                !
 ! D113  D(29,20,30,49)         62.4154         estimate D2E/DX2                !
 ! D114  D(31,20,30,47)       -175.5449         estimate D2E/DX2                !
 ! D115  D(31,20,30,48)         63.5255         estimate D2E/DX2                !
 ! D116  D(31,20,30,49)        -56.1517         estimate D2E/DX2                !
 ! D117  D(12,20,31,44)        -65.3163         estimate D2E/DX2                !
 ! D118  D(12,20,31,45)        175.5676         estimate D2E/DX2                !
 ! D119  D(12,20,31,46)         56.3489         estimate D2E/DX2                !
 ! D120  D(29,20,31,44)         53.9166         estimate D2E/DX2                !
 ! D121  D(29,20,31,45)        -65.1995         estimate D2E/DX2                !
 ! D122  D(29,20,31,46)        175.5818         estimate D2E/DX2                !
 ! D123  D(30,20,31,44)        172.2741         estimate D2E/DX2                !
 ! D124  D(30,20,31,45)         53.158          estimate D2E/DX2                !
 ! D125  D(30,20,31,46)        -66.0607         estimate D2E/DX2                !
 ! D126  D(10,21,28,24)         23.1824         estimate D2E/DX2                !
 ! D127  D(26,21,28,24)        145.0651         estimate D2E/DX2                !
 ! D128  D(27,21,28,24)        -97.86           estimate D2E/DX2                !
 ! D129  D(4,23,24,28)         141.1674         estimate D2E/DX2                !
 ! D130  D(25,23,24,28)        -39.4632         estimate D2E/DX2                !
 ! D131  D(23,24,28,21)        -33.9762         estimate D2E/DX2                !
 --------------------------------------------------------------------------------
 Trust Radius=3.00D-01 FncErr=1.00D-07 GrdErr=1.00D-06
 Number of steps in this run=    291 maximum allowed number of steps=    312.
 GradGradGradGradGradGradGradGradGradGradGradGradGradGradGradGradGradGrad

 Leave Link  103 at Tue Jul 10 17:47:12 2018, MaxMem=  3221225472 cpu:         0.2
 (Enter /ihome/crc/build/g09/g09-D.01/TAR/g09/l202.exe)
 Stoichiometry    C21H28ClNO
 Framework group  C1[X(C21H28ClNO)]
 Deg. of freedom   150
 Full point group                 C1      NOp   1
 Largest Abelian subgroup         C1      NOp   1
 Largest concise Abelian subgroup C1      NOp   1
                         Standard orientation:                         
 ---------------------------------------------------------------------
 Center     Atomic      Atomic             Coordinates (Angstroms)
 Number     Number       Type             X           Y           Z
 ---------------------------------------------------------------------
      1          6           0        5.154049   -0.113994    0.345700
      2          6           0        5.318731    0.562132   -0.865355
      3          6           0        3.993573   -0.841038    0.580282
      4          6           0        2.988356   -0.890487   -0.397433
      5          6           0        3.155872   -0.217492   -1.611719
      6          6           0        4.322232    0.508668   -1.839215
      7          7           0       -1.850443    0.967942   -0.041882
      8          6           0       -2.679612   -0.074951   -0.002552
      9          6           0       -2.519597   -1.105242    0.936863
     10          6           0       -1.461629   -1.057143    1.835890
     11          6           0       -0.586542    0.033252    1.757242
     12          6           0       -0.812659    1.031476    0.812800
     13          1           0        5.928777   -0.073763    1.105641
     14          1           0        6.225065    1.131820   -1.050976
     15          1           0        2.390643   -0.250450   -2.379732
     16          1           0        4.453044    1.031509   -2.781738
     17          1           0        3.851210   -1.369880    1.517597
     18          6           0       -3.835933   -0.109459   -1.005703
     19          1           0       -3.210065   -1.944542    0.967418
     20          6           0        0.045438    2.293149    0.713833
     21          6           0       -1.236461   -2.151548    2.844505
     22          1           0        0.254747    0.083739    2.443359
     23          6           0        1.785226   -1.687582   -0.058421
     24          8           0        1.639993   -2.340760    0.930421
     25         17           0        0.461175   -1.652971   -1.274468
     26          1           0       -2.124378   -2.779974    2.954264
     27          1           0       -0.981157   -1.735507    3.824583
     28          1           0       -0.402199   -2.788538    2.528698
     29          6           0       -0.781610    3.468034    1.264744
     30          6           0        0.388600    2.584062   -0.755103
     31          6           0        1.340502    2.178190    1.521040
     32          6           0       -5.167104   -0.038827   -0.239943
     33          6           0       -3.784043   -1.416896   -1.811668
     34          6           0       -3.760508    1.072244   -1.976710
     35          1           0       -3.877289   -2.299589   -1.169534
     36          1           0       -2.842391   -1.499525   -2.366808
     37          1           0       -4.608085   -1.443492   -2.534706
     38          1           0       -5.294533   -0.896234    0.429995
     39          1           0       -6.007284   -0.036270   -0.945613
     40          1           0       -5.224285    0.877675    0.358555
     41          1           0       -3.838835    2.028142   -1.449767
     42          1           0       -4.586815    1.005560   -2.694645
     43          1           0       -2.819565    1.066765   -2.537017
     44          1           0        1.144280    2.106154    2.596650
     45          1           0        1.955915    3.070491    1.356202
     46          1           0        1.934352    1.305860    1.220181
     47          1           0       -0.522112    2.748739   -1.337663
     48          1           0        0.949835    1.769017   -1.229291
     49          1           0        1.005512    3.488694   -0.810383
     50          1           0       -1.709709    3.589293    0.695813
     51          1           0       -0.209324    4.401276    1.193490
     52          1           0       -1.043476    3.304734    2.316745
 ---------------------------------------------------------------------
 Rotational constants (GHZ):      0.3418821      0.1456820      0.1361192
 Leave Link  202 at Tue Jul 10 17:47:12 2018, MaxMem=  3221225472 cpu:         0.1
 (Enter /ihome/crc/build/g09/g09-D.01/TAR/g09/l301.exe)
 Standard basis: 6-31+G(d) (6D, 7F)
 Ernie: Thresh=  0.10000D-02 Tol=  0.10000D-05 Strict=F.
 There are   516 symmetry adapted cartesian basis functions of A   symmetry.
 There are   516 symmetry adapted basis functions of A   symmetry.
   516 basis functions,   904 primitive gaussians,   516 cartesian basis functions
    93 alpha electrons       93 beta electrons
       nuclear repulsion energy      2304.0913062826 Hartrees.
 IExCor= 4336 DFT=T Ex+Corr=M062X ExCW=0 ScaHFX=  0.540000
 ScaDFX=  1.000000  1.000000  1.000000  1.000000 ScalE2=  1.000000  1.000000
 IRadAn=      0 IRanWt=     -1 IRanGd=            0 ICorTp=0 IEmpDi=  4
 NAtoms=   52 NActive=   52 NUniq=   52 SFac= 1.00D+00 NAtFMM=   60 NAOKFM=F Big=F
 Integral buffers will be    131072 words long.
 Raffenetti 2 integral format.
 Two-electron integral symmetry is turned on.
 ------------------------------------------------------------------------------
 Polarizable Continuum Model (PCM)
 =================================
 Model                : PCM (using non-symmetric T matrix).
 Atomic radii         : SMD-Coulomb.
 Polarization charges : Total charges.
 Charge compensation  : None.
 Solution method      : On-the-fly selection.
 Cavity type          : VdW (van der Waals Surface) (Alpha=1.000).
 Cavity algorithm     : GePol (No added spheres)
                        Default sphere list used, NSphG=   52.
                        Lebedev-Laikov grids with approx.  5.0 points / Ang**2.
                        Smoothing algorithm: Karplus/York (Gamma=1.0000).
                        Polarization charges: spherical gaussians, with
                                              point-specific exponents (IZeta= 3).
                        Self-potential: point-specific (ISelfS= 7).
                        Self-field    : sphere-specific E.n sum rule (ISelfD= 2).
 1st derivatives      : Analytical E(r).r(x)/FMM algorithm (CHGder, D1EAlg=3).
                        Cavity 1st derivative terms included.
 Solvent              : Chloroform, Eps=   4.711300 Eps(inf)=   2.090627
 ------------------------------------------------------------------------------
 GePol: Number of generator spheres                  =      52
 GePol: Total number of spheres                      =      52
 GePol: Number of exposed spheres                    =      52 (100.00%)
 GePol: Number of points                             =    3728
 GePol: Average weight of points                     =       0.11
 GePol: Minimum weight of points                     =   0.23D-10
 GePol: Maximum weight of points                     =    0.18790
 GePol: Number of points with low weight             =     234
 GePol: Fraction of low-weight points (<1% of avg)   =       6.28%
 GePol: Cavity surface area                          =    413.948 Ang**2
 GePol: Cavity volume                                =    404.032 Ang**3
 ------------------------------------------------------------------------------
 Atomic radii for non-electrostatic terms: SMD-CDS.
 ------------------------------------------------------------------------------
 PCM non-electrostatic energy =        -0.0113942237 Hartrees.
 Nuclear repulsion after PCM non-electrostatic terms =     2304.0799120589 Hartrees.
 Leave Link  301 at Tue Jul 10 17:47:12 2018, MaxMem=  3221225472 cpu:         0.9
 (Enter /ihome/crc/build/g09/g09-D.01/TAR/g09/l302.exe)
 NPDir=0 NMtPBC=     1 NCelOv=     1 NCel=       1 NClECP=     1 NCelD=      1
         NCelK=      1 NCelE2=     1 NClLst=     1 CellRange=     0.0.
 One-electron integrals computed using PRISM.
 NBasis=   516 RedAO= T EigKep=  1.06D-06  NBF=   516
 NBsUse=   515 1.00D-06 EigRej=  5.76D-07 NBFU=   515
 Precomputing XC quadrature grid using
 IXCGrd= 4 IRadAn=           0 IRanWt=          -1 IRanGd=           0 AccXCQ= 0.00D+00.
 Generated NRdTot=       0 NPtTot=           0 NUsed=           0 NTot=          32
 NSgBfM=   512   512   512   512   512 MxSgAt=    52 MxSgA2=    52.
 Leave Link  302 at Tue Jul 10 17:47:12 2018, MaxMem=  3221225472 cpu:         8.3
 (Enter /ihome/crc/build/g09/g09-D.01/TAR/g09/l303.exe)
 DipDrv:  MaxL=1.
 Leave Link  303 at Tue Jul 10 17:47:12 2018, MaxMem=  3221225472 cpu:         0.8
 (Enter /ihome/crc/build/g09/g09-D.01/TAR/g09/l401.exe)
 ExpMin= 4.38D-02 ExpMax= 2.52D+04 ExpMxC= 3.78D+03 IAcc=2 IRadAn=         4 AccDes= 0.00D+00
 Harris functional with IExCor= 1009 and IRadAn=       4 diagonalized for initial guess.
 HarFok:  IExCor= 1009 AccDes= 0.00D+00 IRadAn=         4 IDoV= 1 UseB2=F ITyADJ=14
 ICtDFT=  3500011 ScaDFX=  1.000000  1.000000  1.000000  1.000000
 FoFCou: FMM=F IPFlag=           0 FMFlag=      100000 FMFlg1=           0
         NFxFlg=           0 DoJE=T BraDBF=F KetDBF=T FulRan=T
         wScrn=  0.000000 ICntrl=     500 IOpCl=  0 I1Cent=   200000004 NGrid=           0
         NMat0=    1 NMatS0=      1 NMatT0=    0 NMatD0=    1 NMtDS0=    0 NMtDT0=    0
 Petite list used in FoFCou.
 Harris En= -1406.30054282665    
 JPrj=0 DoOrth=F DoCkMO=F.
 Leave Link  401 at Tue Jul 10 17:47:14 2018, MaxMem=  3221225472 cpu:        22.4
 (Enter /ihome/crc/build/g09/g09-D.01/TAR/g09/l502.exe)
 Closed shell SCF:
 Using DIIS extrapolation, IDIIS=  1040.
 Integral symmetry usage will be decided dynamically.
 IVT=      829467 IEndB=      829467 NGot=  3221225472 MDV=  3220679418
 LenX=  3220679418 LenY=  3220412646
 Requested convergence on RMS density matrix=1.00D-08 within 128 cycles.
 Requested convergence on MAX density matrix=1.00D-06.
 Requested convergence on             energy=1.00D-06.
 No special actions if energy rises.
 Fock matrices will be formed incrementally for  20 cycles.

 Cycle   1  Pass 1  IDiag  1:
 FoFJK:  IHMeth= 1 ICntrl=       0 DoSepK=F KAlg= 0 I1Cent=   0 FoldK=F
 IRaf= 810000000 NMat=   1 IRICut=       1 DoRegI=T DoRafI=F ISym2E= 0.
 FoFCou: FMM=F IPFlag=           0 FMFlag=      100000 FMFlg1=           0
         NFxFlg=           0 DoJE=F BraDBF=F KetDBF=F FulRan=T
         wScrn=  0.000000 ICntrl=       0 IOpCl=  0 I1Cent=           0 NGrid=           0
         NMat0=    1 NMatS0=      1 NMatT0=    0 NMatD0=    1 NMtDS0=    0 NMtDT0=    0
 Symmetry not used in FoFCou.
 Inv3:  Mode=1 IEnd=    41693952.
 Iteration    1 A*A^-1 deviation from unit magnitude is 1.09D-14 for   2662.
 Iteration    1 A*A^-1 deviation from orthogonality  is 1.04D-14 for   2703    873.
 Iteration    1 A^-1*A deviation from unit magnitude is 1.11D-14 for   1963.
 Iteration    1 A^-1*A deviation from orthogonality  is 5.37D-11 for   1683   1631.
 E= -1406.17895171558    
 DIIS: error= 2.62D-02 at cycle   1 NSaved=   1.
 NSaved= 1 IEnMin= 1 EnMin= -1406.17895171558     IErMin= 1 ErrMin= 2.62D-02
 ErrMax= 2.62D-02  0.00D+00 EMaxC= 1.00D-01 BMatC= 7.51D-01 BMatP= 7.51D-01
 IDIUse=3 WtCom= 7.38D-01 WtEn= 2.62D-01
 Coeff-Com:  0.100D+01
 Coeff-En:   0.100D+01
 Coeff:      0.100D+01
 Gap=     0.479 Goal=   None    Shift=    0.000
 GapD=    0.479 DampG=2.000 DampE=0.500 DampFc=1.0000 IDamp=-1.
 RMSDP=3.72D-02 MaxDP=5.46D+00              OVMax= 2.05D-01

 Cycle   2  Pass 1  IDiag  1:
 RMSU=  3.66D-02    CP:  1.11D+00
 E= -1406.33467326717     Delta-E=       -0.155721551595 Rises=F Damp=F
 DIIS: error= 2.06D-02 at cycle   2 NSaved=   2.
 NSaved= 2 IEnMin= 2 EnMin= -1406.33467326717     IErMin= 2 ErrMin= 2.06D-02
 ErrMax= 2.06D-02  0.00D+00 EMaxC= 1.00D-01 BMatC= 5.96D-01 BMatP= 7.51D-01
 IDIUse=3 WtCom= 7.94D-01 WtEn= 2.06D-01
 Coeff-Com:  0.468D+00 0.532D+00
 Coeff-En:   0.431D+00 0.569D+00
 Coeff:      0.461D+00 0.539D+00
 Gap=     0.243 Goal=   None    Shift=    0.000
 RMSDP=3.32D-02 MaxDP=5.23D+00 DE=-1.56D-01 OVMax= 1.65D-01

 Cycle   3  Pass 1  IDiag  1:
 RMSU=  9.53D-03    CP:  8.43D-01  2.63D-01
 E= -1406.85912107089     Delta-E=       -0.524447803719 Rises=F Damp=F
 DIIS: error= 6.93D-03 at cycle   3 NSaved=   3.
 NSaved= 3 IEnMin= 3 EnMin= -1406.85912107089     IErMin= 3 ErrMin= 6.93D-03
 ErrMax= 6.93D-03  0.00D+00 EMaxC= 1.00D-01 BMatC= 4.64D-02 BMatP= 5.96D-01
 IDIUse=3 WtCom= 9.31D-01 WtEn= 6.93D-02
 Coeff-Com:  0.167D+00 0.265D+00 0.569D+00
 Coeff-En:   0.000D+00 0.000D+00 0.100D+01
 Coeff:      0.155D+00 0.246D+00 0.598D+00
 Gap=     0.242 Goal=   None    Shift=    0.000
 RMSDP=5.16D-03 MaxDP=7.27D-01 DE=-5.24D-01 OVMax= 5.29D-02

 Cycle   4  Pass 1  IDiag  1:
 RMSU=  4.34D-03    CP:  8.60D-01  3.32D-01  9.30D-01
 E= -1406.88818597758     Delta-E=       -0.029064906682 Rises=F Damp=F
 DIIS: error= 2.94D-03 at cycle   4 NSaved=   4.
 NSaved= 4 IEnMin= 4 EnMin= -1406.88818597758     IErMin= 4 ErrMin= 2.94D-03
 ErrMax= 2.94D-03  0.00D+00 EMaxC= 1.00D-01 BMatC= 8.02D-03 BMatP= 4.64D-02
 IDIUse=3 WtCom= 9.71D-01 WtEn= 2.94D-02
 Coeff-Com:  0.168D-02 0.322D-01 0.318D+00 0.648D+00
 Coeff-En:   0.000D+00 0.000D+00 0.141D+00 0.859D+00
 Coeff:      0.163D-02 0.312D-01 0.313D+00 0.654D+00
 Gap=     0.243 Goal=   None    Shift=    0.000
 RMSDP=1.94D-03 MaxDP=1.66D-01 DE=-2.91D-02 OVMax= 1.85D-02

 Cycle   5  Pass 1  IDiag  1:
 RMSU=  1.37D-03    CP:  8.67D-01  3.41D-01  9.67D-01  7.26D-01
 E= -1406.89430002466     Delta-E=       -0.006114047080 Rises=F Damp=F
 DIIS: error= 2.24D-04 at cycle   5 NSaved=   5.
 NSaved= 5 IEnMin= 5 EnMin= -1406.89430002466     IErMin= 5 ErrMin= 2.24D-04
 ErrMax= 2.24D-04  0.00D+00 EMaxC= 1.00D-01 BMatC= 1.06D-04 BMatP= 8.02D-03
 IDIUse=3 WtCom= 9.98D-01 WtEn= 2.24D-03
 Coeff-Com: -0.336D-02 0.252D-02 0.837D-01 0.219D+00 0.698D+00
 Coeff-En:   0.000D+00 0.000D+00 0.000D+00 0.000D+00 0.100D+01
 Coeff:     -0.336D-02 0.251D-02 0.835D-01 0.219D+00 0.699D+00
 Gap=     0.241 Goal=   None    Shift=    0.000
 RMSDP=3.93D-04 MaxDP=3.24D-02 DE=-6.11D-03 OVMax= 2.59D-03

 Cycle   6  Pass 1  IDiag  1:
 RMSU=  3.02D-04    CP:  8.70D-01  3.42D-01  9.82D-01  7.39D-01  1.10D+00
 E= -1406.89440765886     Delta-E=       -0.000107634201 Rises=F Damp=F
 DIIS: error= 8.01D-05 at cycle   6 NSaved=   6.
 NSaved= 6 IEnMin= 6 EnMin= -1406.89440765886     IErMin= 6 ErrMin= 8.01D-05
 ErrMax= 8.01D-05  0.00D+00 EMaxC= 1.00D-01 BMatC= 1.19D-05 BMatP= 1.06D-04
 IDIUse=1 WtCom= 1.00D+00 WtEn= 0.00D+00
 Coeff-Com: -0.121D-02-0.267D-02-0.905D-03 0.122D-01 0.252D+00 0.741D+00
 Coeff:     -0.121D-02-0.267D-02-0.905D-03 0.122D-01 0.252D+00 0.741D+00
 Gap=     0.242 Goal=   None    Shift=    0.000
 RMSDP=1.48D-04 MaxDP=1.78D-02 DE=-1.08D-04 OVMax= 1.32D-03

 Cycle   7  Pass 1  IDiag  1:
 RMSU=  1.11D-04    CP:  8.69D-01  3.41D-01  9.85D-01  7.35D-01  1.14D+00
                    CP:  8.43D-01
 E= -1406.89442272865     Delta-E=       -0.000015069792 Rises=F Damp=F
 DIIS: error= 2.91D-05 at cycle   7 NSaved=   7.
 NSaved= 7 IEnMin= 7 EnMin= -1406.89442272865     IErMin= 7 ErrMin= 2.91D-05
 ErrMax= 2.91D-05  0.00D+00 EMaxC= 1.00D-01 BMatC= 1.08D-06 BMatP= 1.19D-05
 IDIUse=1 WtCom= 1.00D+00 WtEn= 0.00D+00
 Coeff-Com: -0.278D-05-0.117D-02-0.815D-02-0.204D-01 0.404D-03 0.197D+00
 Coeff-Com:  0.832D+00
 Coeff:     -0.278D-05-0.117D-02-0.815D-02-0.204D-01 0.404D-03 0.197D+00
 Coeff:      0.832D+00
 Gap=     0.242 Goal=   None    Shift=    0.000
 RMSDP=6.19D-05 MaxDP=5.00D-03 DE=-1.51D-05 OVMax= 6.43D-04

 Cycle   8  Pass 1  IDiag  1:
 RMSU=  4.47D-05    CP:  8.69D-01  3.41D-01  9.86D-01  7.34D-01  1.17D+00
                    CP:  8.58D-01  1.18D+00
 E= -1406.89442445445     Delta-E=       -0.000001725803 Rises=F Damp=F
 DIIS: error= 1.59D-05 at cycle   8 NSaved=   8.
 NSaved= 8 IEnMin= 8 EnMin= -1406.89442445445     IErMin= 8 ErrMin= 1.59D-05
 ErrMax= 1.59D-05  0.00D+00 EMaxC= 1.00D-01 BMatC= 2.80D-07 BMatP= 1.08D-06
 IDIUse=1 WtCom= 1.00D+00 WtEn= 0.00D+00
 Coeff-Com:  0.126D-03-0.239D-03-0.324D-02-0.112D-01-0.310D-01-0.780D-02
 Coeff-Com:  0.370D+00 0.683D+00
 Coeff:      0.126D-03-0.239D-03-0.324D-02-0.112D-01-0.310D-01-0.780D-02
 Coeff:      0.370D+00 0.683D+00
 Gap=     0.242 Goal=   None    Shift=    0.000
 RMSDP=3.21D-05 MaxDP=5.59D-03 DE=-1.73D-06 OVMax= 2.66D-04

 Cycle   9  Pass 1  IDiag  1:
 RMSU=  1.83D-05    CP:  8.69D-01  3.41D-01  9.86D-01  7.32D-01  1.18D+00
                    CP:  8.50D-01  1.27D+00  9.83D-01
 E= -1406.89442485578     Delta-E=       -0.000000401328 Rises=F Damp=F
 DIIS: error= 4.18D-06 at cycle   9 NSaved=   9.
 NSaved= 9 IEnMin= 9 EnMin= -1406.89442485578     IErMin= 9 ErrMin= 4.18D-06
 ErrMax= 4.18D-06  0.00D+00 EMaxC= 1.00D-01 BMatC= 2.60D-08 BMatP= 2.80D-07
 IDIUse=1 WtCom= 1.00D+00 WtEn= 0.00D+00
 Coeff-Com:  0.351D-04 0.110D-03 0.375D-03-0.573D-03-0.991D-02-0.342D-01
 Coeff-Com: -0.236D-01 0.218D+00 0.849D+00
 Coeff:      0.351D-04 0.110D-03 0.375D-03-0.573D-03-0.991D-02-0.342D-01
 Coeff:     -0.236D-01 0.218D+00 0.849D+00
 Gap=     0.242 Goal=   None    Shift=    0.000
 RMSDP=1.02D-05 MaxDP=1.27D-03 DE=-4.01D-07 OVMax= 1.29D-04

 Cycle  10  Pass 1  IDiag  1:
 RMSU=  6.01D-06    CP:  8.69D-01  3.41D-01  9.86D-01  7.31D-01  1.18D+00
                    CP:  8.44D-01  1.32D+00  1.03D+00  1.07D+00
 E= -1406.89442489935     Delta-E=       -0.000000043570 Rises=F Damp=F
 DIIS: error= 1.25D-06 at cycle  10 NSaved=  10.
 NSaved=10 IEnMin=10 EnMin= -1406.89442489935     IErMin=10 ErrMin= 1.25D-06
 ErrMax= 1.25D-06  0.00D+00 EMaxC= 1.00D-01 BMatC= 2.83D-09 BMatP= 2.60D-08
 IDIUse=1 WtCom= 1.00D+00 WtEn= 0.00D+00
 Coeff-Com:  0.551D-06 0.653D-04 0.458D-03 0.808D-03-0.872D-03-0.118D-01
 Coeff-Com: -0.431D-01 0.222D-01 0.332D+00 0.700D+00
 Coeff:      0.551D-06 0.653D-04 0.458D-03 0.808D-03-0.872D-03-0.118D-01
 Coeff:     -0.431D-01 0.222D-01 0.332D+00 0.700D+00
 Gap=     0.242 Goal=   None    Shift=    0.000
 RMSDP=2.98D-06 MaxDP=5.09D-04 DE=-4.36D-08 OVMax= 2.21D-05

 Cycle  11  Pass 1  IDiag  1:
 RMSU=  1.31D-06    CP:  8.69D-01  3.41D-01  9.86D-01  7.30D-01  1.18D+00
                    CP:  8.41D-01  1.32D+00  1.04D+00  1.16D+00  1.05D+00
 E= -1406.89442490296     Delta-E=       -0.000000003614 Rises=F Damp=F
 DIIS: error= 4.41D-07 at cycle  11 NSaved=  11.
 NSaved=11 IEnMin=11 EnMin= -1406.89442490296     IErMin=11 ErrMin= 4.41D-07
 ErrMax= 4.41D-07  0.00D+00 EMaxC= 1.00D-01 BMatC= 2.38D-10 BMatP= 2.83D-09
 IDIUse=1 WtCom= 1.00D+00 WtEn= 0.00D+00
 Coeff-Com: -0.337D-05 0.105D-04 0.119D-03 0.332D-03 0.716D-03-0.331D-03
 Coeff-Com: -0.119D-01-0.147D-01 0.224D-01 0.236D+00 0.768D+00
 Coeff:     -0.337D-05 0.105D-04 0.119D-03 0.332D-03 0.716D-03-0.331D-03
 Coeff:     -0.119D-01-0.147D-01 0.224D-01 0.236D+00 0.768D+00
 Gap=     0.242 Goal=   None    Shift=    0.000
 RMSDP=7.30D-07 MaxDP=6.11D-05 DE=-3.61D-09 OVMax= 7.86D-06

 Cycle  12  Pass 1  IDiag  1:
 RMSU=  4.42D-07    CP:  8.69D-01  3.41D-01  9.86D-01  7.30D-01  1.18D+00
                    CP:  8.41D-01  1.32D+00  1.04D+00  1.17D+00  1.12D+00
                    CP:  1.06D+00
 E= -1406.89442490337     Delta-E=       -0.000000000406 Rises=F Damp=F
 DIIS: error= 1.62D-07 at cycle  12 NSaved=  12.
 NSaved=12 IEnMin=12 EnMin= -1406.89442490337     IErMin=12 ErrMin= 1.62D-07
 ErrMax= 1.62D-07  0.00D+00 EMaxC= 1.00D-01 BMatC= 4.33D-11 BMatP= 2.38D-10
 IDIUse=1 WtCom= 1.00D+00 WtEn= 0.00D+00
 Coeff-Com: -0.117D-05-0.231D-05 0.454D-05 0.499D-04 0.368D-03 0.107D-02
 Coeff-Com: -0.501D-03-0.783D-02-0.259D-01 0.232D-01 0.328D+00 0.682D+00
 Coeff:     -0.117D-05-0.231D-05 0.454D-05 0.499D-04 0.368D-03 0.107D-02
 Coeff:     -0.501D-03-0.783D-02-0.259D-01 0.232D-01 0.328D+00 0.682D+00
 Gap=     0.242 Goal=   None    Shift=    0.000
 RMSDP=2.80D-07 MaxDP=2.76D-05 DE=-4.06D-10 OVMax= 2.40D-06

 Cycle  13  Pass 1  IDiag  1:
 RMSU=  1.53D-07    CP:  8.69D-01  3.41D-01  9.86D-01  7.30D-01  1.18D+00
                    CP:  8.41D-01  1.32D+00  1.03D+00  1.17D+00  1.13D+00
                    CP:  1.14D+00  9.32D-01
 E= -1406.89442490341     Delta-E=       -0.000000000036 Rises=F Damp=F
 DIIS: error= 7.18D-08 at cycle  13 NSaved=  13.
 NSaved=13 IEnMin=13 EnMin= -1406.89442490341     IErMin=13 ErrMin= 7.18D-08
 ErrMax= 7.18D-08  0.00D+00 EMaxC= 1.00D-01 BMatC= 3.90D-12 BMatP= 4.33D-11
 IDIUse=1 WtCom= 1.00D+00 WtEn= 0.00D+00
 Coeff-Com:  0.258D-07-0.216D-05-0.115D-04-0.248D-04 0.418D-04 0.402D-03
 Coeff-Com:  0.121D-02-0.572D-03-0.123D-01-0.234D-01 0.135D-01 0.226D+00
 Coeff-Com:  0.796D+00
 Coeff:      0.258D-07-0.216D-05-0.115D-04-0.248D-04 0.418D-04 0.402D-03
 Coeff:      0.121D-02-0.572D-03-0.123D-01-0.234D-01 0.135D-01 0.226D+00
 Coeff:      0.796D+00
 Gap=     0.242 Goal=   None    Shift=    0.000
 RMSDP=1.31D-07 MaxDP=1.22D-05 DE=-3.64D-11 OVMax= 1.50D-06

 Cycle  14  Pass 1  IDiag  1:
 RMSU=  6.51D-08    CP:  8.69D-01  3.41D-01  9.86D-01  7.30D-01  1.18D+00
                    CP:  8.41D-01  1.32D+00  1.03D+00  1.17D+00  1.14D+00
                    CP:  1.16D+00  1.00D+00  9.62D-01
 E= -1406.89442490337     Delta-E=        0.000000000040 Rises=F Damp=F
 DIIS: error= 2.20D-08 at cycle  14 NSaved=  14.
 NSaved=14 IEnMin=13 EnMin= -1406.89442490341     IErMin=14 ErrMin= 2.20D-08
 ErrMax= 2.20D-08  0.00D+00 EMaxC= 1.00D-01 BMatC= 4.07D-13 BMatP= 3.90D-12
 IDIUse=1 WtCom= 1.00D+00 WtEn= 0.00D+00
 Coeff-Com:  0.109D-06-0.251D-06-0.249D-05-0.970D-05-0.209D-04-0.122D-04
 Coeff-Com:  0.276D-03 0.699D-03-0.646D-03-0.814D-02-0.287D-01-0.160D-01
 Coeff-Com:  0.223D+00 0.829D+00
 Coeff:      0.109D-06-0.251D-06-0.249D-05-0.970D-05-0.209D-04-0.122D-04
 Coeff:      0.276D-03 0.699D-03-0.646D-03-0.814D-02-0.287D-01-0.160D-01
 Coeff:      0.223D+00 0.829D+00
 Gap=     0.242 Goal=   None    Shift=    0.000
 RMSDP=3.65D-08 MaxDP=3.31D-06 DE= 3.96D-11 OVMax= 5.25D-07

 Cycle  15  Pass 1  IDiag  1:
 RMSU=  1.50D-08    CP:  8.69D-01  3.41D-01  9.86D-01  7.30D-01  1.18D+00
                    CP:  8.41D-01  1.32D+00  1.03D+00  1.17D+00  1.14D+00
                    CP:  1.16D+00  1.01D+00  1.07D+00  9.99D-01
 E= -1406.89442490333     Delta-E=        0.000000000032 Rises=F Damp=F
 DIIS: error= 1.18D-08 at cycle  15 NSaved=  15.
 NSaved=15 IEnMin=13 EnMin= -1406.89442490341     IErMin=15 ErrMin= 1.18D-08
 ErrMax= 1.18D-08  0.00D+00 EMaxC= 1.00D-01 BMatC= 5.99D-14 BMatP= 4.07D-13
 IDIUse=1 WtCom= 1.00D+00 WtEn= 0.00D+00
 Coeff-Com:  0.267D-07 0.222D-06 0.647D-06 0.169D-06-0.121D-04-0.607D-04
 Coeff-Com: -0.834D-04 0.330D-03 0.155D-02 0.862D-03-0.110D-01-0.394D-01
 Coeff-Com: -0.345D-01 0.281D+00 0.802D+00
 Coeff:      0.267D-07 0.222D-06 0.647D-06 0.169D-06-0.121D-04-0.607D-04
 Coeff:     -0.834D-04 0.330D-03 0.155D-02 0.862D-03-0.110D-01-0.394D-01
 Coeff:     -0.345D-01 0.281D+00 0.802D+00
 Gap=     0.242 Goal=   None    Shift=    0.000
 RMSDP=1.28D-08 MaxDP=1.20D-06 DE= 3.23D-11 OVMax= 2.57D-07

 Cycle  16  Pass 1  IDiag  1:
 RMSU=  5.40D-09    CP:  8.69D-01  3.41D-01  9.86D-01  7.30D-01  1.18D+00
                    CP:  8.41D-01  1.32D+00  1.03D+00  1.17D+00  1.14D+00
                    CP:  1.16D+00  1.01D+00  1.08D+00  1.06D+00  1.22D+00
 E= -1406.89442490333     Delta-E=        0.000000000005 Rises=F Damp=F
 DIIS: error= 2.89D-09 at cycle  16 NSaved=  16.
 NSaved=16 IEnMin=13 EnMin= -1406.89442490341     IErMin=16 ErrMin= 2.89D-09
 ErrMax= 2.89D-09  0.00D+00 EMaxC= 1.00D-01 BMatC= 6.89D-15 BMatP= 5.99D-14
 IDIUse=1 WtCom= 1.00D+00 WtEn= 0.00D+00
 Coeff-Com: -0.331D-08 0.846D-07 0.274D-06 0.887D-06-0.147D-05-0.149D-04
 Coeff-Com: -0.443D-04 0.114D-04 0.512D-03 0.119D-02 0.114D-03-0.101D-01
 Coeff-Com: -0.381D-01-0.278D-01 0.229D+00 0.845D+00
 Coeff:     -0.331D-08 0.846D-07 0.274D-06 0.887D-06-0.147D-05-0.149D-04
 Coeff:     -0.443D-04 0.114D-04 0.512D-03 0.119D-02 0.114D-03-0.101D-01
 Coeff:     -0.381D-01-0.278D-01 0.229D+00 0.845D+00
 Gap=     0.242 Goal=   None    Shift=    0.000
 RMSDP=4.61D-09 MaxDP=4.46D-07 DE= 4.55D-12 OVMax= 1.07D-07

 Error on total polarization charges =  0.05647
 SCF Done:  E(RM062X) =  -1406.89442490     A.U. after   16 cycles
            NFock= 16  Conv=0.46D-08     -V/T= 2.0069
 KE= 1.397287841893D+03 PE=-7.896033739080D+03 EE= 2.787771560225D+03
 SMD-CDS (non-electrostatic) energy       (kcal/mol) =      -7.15
 (included in total energy above)
 Leave Link  502 at Tue Jul 10 17:49:49 2018, MaxMem=  3221225472 cpu:      2438.2
 (Enter /ihome/crc/build/g09/g09-D.01/TAR/g09/l601.exe)
 Copying SCF densities to generalized density rwf, IOpCl= 0 IROHF=0.

 **********************************************************************

            Population analysis using the SCF density.

 **********************************************************************

 Orbital symmetries:
       Occupied  (A) (A) (A) (A) (A) (A) (A) (A) (A) (A) (A) (A)
                 (A) (A) (A) (A) (A) (A) (A) (A) (A) (A) (A) (A)
                 (A) (A) (A) (A) (A) (A) (A) (A) (A) (A) (A) (A)
                 (A) (A) (A) (A) (A) (A) (A) (A) (A) (A) (A) (A)
                 (A) (A) (A) (A) (A) (A) (A) (A) (A) (A) (A) (A)
                 (A) (A) (A) (A) (A) (A) (A) (A) (A) (A) (A) (A)
                 (A) (A) (A) (A) (A) (A) (A) (A) (A) (A) (A) (A)
                 (A) (A) (A) (A) (A) (A) (A) (A) (A)
       Virtual   (A) (A) (A) (A) (A) (A) (A) (A) (A) (A) (A) (A)
                 (A) (A) (A) (A) (A) (A) (A) (A) (A) (A) (A) (A)
                 (A) (A) (A) (A) (A) (A) (A) (A) (A) (A) (A) (A)
                 (A) (A) (A) (A) (A) (A) (A) (A) (A) (A) (A) (A)
                 (A) (A) (A) (A) (A) (A) (A) (A) (A) (A) (A) (A)
                 (A) (A) (A) (A) (A) (A) (A) (A) (A) (A) (A) (A)
                 (A) (A) (A) (A) (A) (A) (A) (A) (A) (A) (A) (A)
                 (A) (A) (A) (A) (A) (A) (A) (A) (A) (A) (A) (A)
                 (A) (A) (A) (A) (A) (A) (A) (A) (A) (A) (A) (A)
                 (A) (A) (A) (A) (A) (A) (A) (A) (A) (A) (A) (A)
                 (A) (A) (A) (A) (A) (A) (A) (A) (A) (A) (A) (A)
                 (A) (A) (A) (A) (A) (A) (A) (A) (A) (A) (A) (A)
                 (A) (A) (A) (A) (A) (A) (A) (A) (A) (A) (A) (A)
                 (A) (A) (A) (A) (A) (A) (A) (A) (A) (A) (A) (A)
                 (A) (A) (A) (A) (A) (A) (A) (A) (A) (A) (A) (A)
                 (A) (A) (A) (A) (A) (A) (A) (A) (A) (A) (A) (A)
                 (A) (A) (A) (A) (A) (A) (A) (A) (A) (A) (A) (A)
                 (A) (A) (A) (A) (A) (A) (A) (A) (A) (A) (A) (A)
                 (A) (A) (A) (A) (A) (A) (A) (A) (A) (A) (A) (A)
                 (A) (A) (A) (A) (A) (A) (A) (A) (A) (A) (A) (A)
                 (A) (A) (A) (A) (A) (A) (A) (A) (A) (A) (A) (A)
                 (A) (A) (A) (A) (A) (A) (A) (A) (A) (A) (A) (A)
                 (A) (A) (A) (A) (A) (A) (A) (A) (A) (A) (A) (A)
                 (A) (A) (A) (A) (A) (A) (A) (A) (A) (A) (A) (A)
                 (A) (A) (A) (A) (A) (A) (A) (A) (A) (A) (A) (A)
                 (A) (A) (A) (A) (A) (A) (A) (A) (A) (A) (A) (A)
                 (A) (A) (A) (A) (A) (A) (A) (A) (A) (A) (A) (A)
                 (A) (A) (A) (A) (A) (A) (A) (A) (A) (A) (A) (A)
                 (A) (A) (A) (A) (A) (A) (A) (A) (A) (A) (A) (A)
                 (A) (A) (A) (A) (A) (A) (A) (A) (A) (A) (A) (A)
                 (A) (A) (A) (A) (A) (A) (A) (A) (A) (A) (A) (A)
                 (A) (A) (A) (A) (A) (A) (A) (A) (A) (A) (A) (A)
                 (A) (A) (A) (A) (A) (A) (A) (A) (A) (A) (A) (A)
                 (A) (A) (A) (A) (A) (A) (A) (A) (A) (A) (A) (A)
                 (A) (A) (A) (A) (A) (A) (A) (A) (A) (A) (A) (A)
                 (A) (A)
 The electronic state is 1-A.
 Alpha  occ. eigenvalues -- -102.67407 -19.68163 -14.74580 -10.71229 -10.58876
 Alpha  occ. eigenvalues --  -10.58128 -10.57981 -10.57658 -10.57531 -10.57306
 Alpha  occ. eigenvalues --  -10.56797 -10.56763 -10.56571 -10.55371 -10.55333
 Alpha  occ. eigenvalues --  -10.54184 -10.54166 -10.53515 -10.52793 -10.52752
 Alpha  occ. eigenvalues --  -10.52717 -10.52606 -10.52282 -10.52048  -9.82053
 Alpha  occ. eigenvalues --   -7.54404  -7.53833  -7.53767  -1.22103  -1.04676
 Alpha  occ. eigenvalues --   -0.98570  -0.94817  -0.92910  -0.91176  -0.89931
 Alpha  occ. eigenvalues --   -0.87408  -0.86084  -0.82555  -0.79422  -0.77082
 Alpha  occ. eigenvalues --   -0.76929  -0.76578  -0.76254  -0.74201  -0.71023
 Alpha  occ. eigenvalues --   -0.70524  -0.68677  -0.65266  -0.61743  -0.60952
 Alpha  occ. eigenvalues --   -0.60133  -0.56514  -0.56498  -0.55815  -0.55646
 Alpha  occ. eigenvalues --   -0.53251  -0.52335  -0.52235  -0.51934  -0.51671
 Alpha  occ. eigenvalues --   -0.50614  -0.50349  -0.49707  -0.49260  -0.48531
 Alpha  occ. eigenvalues --   -0.48237  -0.46011  -0.45433  -0.45039  -0.44989
 Alpha  occ. eigenvalues --   -0.44652  -0.44040  -0.43452  -0.43370  -0.42351
 Alpha  occ. eigenvalues --   -0.42290  -0.41791  -0.41701  -0.41649  -0.40044
 Alpha  occ. eigenvalues --   -0.39003  -0.38849  -0.38432  -0.38266  -0.37586
 Alpha  occ. eigenvalues --   -0.37380  -0.36634  -0.36364  -0.32729  -0.32346
 Alpha  occ. eigenvalues --   -0.31630  -0.30588  -0.28968
 Alpha virt. eigenvalues --   -0.04726   0.00646   0.01063   0.01726   0.02228
 Alpha virt. eigenvalues --    0.02301   0.02505   0.02834   0.03556   0.03649
 Alpha virt. eigenvalues --    0.04030   0.04463   0.04618   0.05038   0.05230
 Alpha virt. eigenvalues --    0.05729   0.05773   0.05999   0.06459   0.06666
 Alpha virt. eigenvalues --    0.06974   0.07238   0.07488   0.07972   0.08204
 Alpha virt. eigenvalues --    0.08444   0.08925   0.09032   0.09419   0.09786
 Alpha virt. eigenvalues --    0.09920   0.10307   0.10530   0.10887   0.11390
 Alpha virt. eigenvalues --    0.11941   0.12493   0.12837   0.13072   0.13171
 Alpha virt. eigenvalues --    0.13732   0.13990   0.14130   0.14896   0.15067
 Alpha virt. eigenvalues --    0.15448   0.15705   0.15823   0.16061   0.16435
 Alpha virt. eigenvalues --    0.16643   0.16872   0.17357   0.17628   0.18184
 Alpha virt. eigenvalues --    0.18242   0.18625   0.18720   0.19036   0.19407
 Alpha virt. eigenvalues --    0.19809   0.20115   0.20211   0.20485   0.20728
 Alpha virt. eigenvalues --    0.21033   0.21241   0.21465   0.22045   0.22235
 Alpha virt. eigenvalues --    0.22512   0.22682   0.22906   0.23279   0.23619
 Alpha virt. eigenvalues --    0.23891   0.24145   0.24319   0.24626   0.24980
 Alpha virt. eigenvalues --    0.25253   0.25329   0.25565   0.25920   0.26183
 Alpha virt. eigenvalues --    0.26264   0.26832   0.26913   0.27173   0.27415
 Alpha virt. eigenvalues --    0.27944   0.28165   0.28531   0.28692   0.29001
 Alpha virt. eigenvalues --    0.29276   0.29388   0.29812   0.30331   0.30538
 Alpha virt. eigenvalues --    0.30795   0.31035   0.31454   0.31691   0.31948
 Alpha virt. eigenvalues --    0.32288   0.32973   0.33123   0.33487   0.33896
 Alpha virt. eigenvalues --    0.34189   0.34398   0.34685   0.34994   0.35402
 Alpha virt. eigenvalues --    0.35763   0.35807   0.36267   0.36577   0.36994
 Alpha virt. eigenvalues --    0.37115   0.37922   0.37979   0.38433   0.38816
 Alpha virt. eigenvalues --    0.39030   0.39422   0.39842   0.40156   0.40773
 Alpha virt. eigenvalues --    0.41043   0.41690   0.42325   0.43055   0.43182
 Alpha virt. eigenvalues --    0.43964   0.44100   0.45618   0.45694   0.46323
 Alpha virt. eigenvalues --    0.47163   0.48171   0.48484   0.49322   0.51656
 Alpha virt. eigenvalues --    0.51995   0.53096   0.53810   0.56164   0.56944
 Alpha virt. eigenvalues --    0.61422   0.64855   0.65134   0.65564   0.66958
 Alpha virt. eigenvalues --    0.69919   0.70919   0.71744   0.72721   0.73414
 Alpha virt. eigenvalues --    0.73854   0.74929   0.75252   0.76144   0.76583
 Alpha virt. eigenvalues --    0.76828   0.77497   0.77668   0.78062   0.78855
 Alpha virt. eigenvalues --    0.79290   0.79833   0.80144   0.80525   0.80728
 Alpha virt. eigenvalues --    0.81387   0.81655   0.82641   0.82889   0.83043
 Alpha virt. eigenvalues --    0.83459   0.84159   0.84769   0.85976   0.86242
 Alpha virt. eigenvalues --    0.86623   0.87375   0.87765   0.87864   0.88657
 Alpha virt. eigenvalues --    0.89194   0.90021   0.90482   0.91941   0.92208
 Alpha virt. eigenvalues --    0.92969   0.93288   0.94060   0.95701   0.96085
 Alpha virt. eigenvalues --    0.96827   0.97275   0.97939   0.98465   0.98982
 Alpha virt. eigenvalues --    0.99291   1.00144   1.00519   1.00901   1.01614
 Alpha virt. eigenvalues --    1.02263   1.02446   1.03186   1.03877   1.04260
 Alpha virt. eigenvalues --    1.05415   1.05752   1.06465   1.07466   1.08085
 Alpha virt. eigenvalues --    1.08781   1.09403   1.09618   1.10679   1.10881
 Alpha virt. eigenvalues --    1.11189   1.11537   1.12463   1.12750   1.13456
 Alpha virt. eigenvalues --    1.14713   1.15135   1.15620   1.16400   1.16551
 Alpha virt. eigenvalues --    1.17665   1.18125   1.18660   1.19224   1.20273
 Alpha virt. eigenvalues --    1.20990   1.22602   1.23174   1.23587   1.23935
 Alpha virt. eigenvalues --    1.24803   1.25156   1.26433   1.27079   1.27490
 Alpha virt. eigenvalues --    1.27936   1.28979   1.29528   1.30157   1.30977
 Alpha virt. eigenvalues --    1.31800   1.32632   1.33299   1.34225   1.35802
 Alpha virt. eigenvalues --    1.36242   1.37638   1.37848   1.39152   1.42272
 Alpha virt. eigenvalues --    1.43121   1.43332   1.44881   1.45161   1.45711
 Alpha virt. eigenvalues --    1.46313   1.46621   1.48360   1.49494   1.50033
 Alpha virt. eigenvalues --    1.51477   1.51749   1.53906   1.54197   1.54536
 Alpha virt. eigenvalues --    1.55364   1.55972   1.57119   1.58587   1.59189
 Alpha virt. eigenvalues --    1.61011   1.62883   1.62995   1.65713   1.66562
 Alpha virt. eigenvalues --    1.69628   1.72036   1.73123   1.75480   1.77059
 Alpha virt. eigenvalues --    1.79374   1.80218   1.81162   1.81722   1.83083
 Alpha virt. eigenvalues --    1.85492   1.87554   1.89080   1.90123   1.91684
 Alpha virt. eigenvalues --    1.92965   1.93571   1.94124   1.94789   1.95690
 Alpha virt. eigenvalues --    1.97137   1.97387   1.97765   1.98040   1.99580
 Alpha virt. eigenvalues --    2.01748   2.03258   2.03616   2.03720   2.04588
 Alpha virt. eigenvalues --    2.06107   2.06204   2.07515   2.10161   2.10562
 Alpha virt. eigenvalues --    2.12634   2.12711   2.15665   2.18447   2.18598
 Alpha virt. eigenvalues --    2.18858   2.20093   2.20401   2.20992   2.21338
 Alpha virt. eigenvalues --    2.22686   2.23256   2.24075   2.26394   2.27558
 Alpha virt. eigenvalues --    2.29222   2.30182   2.30993   2.32176   2.32864
 Alpha virt. eigenvalues --    2.33105   2.34094   2.34595   2.35396   2.35926
 Alpha virt. eigenvalues --    2.36012   2.36399   2.37722   2.38229   2.39368
 Alpha virt. eigenvalues --    2.39919   2.41055   2.41897   2.42191   2.44317
 Alpha virt. eigenvalues --    2.45758   2.46777   2.47823   2.48737   2.49959
 Alpha virt. eigenvalues --    2.54911   2.56621   2.60045   2.60876   2.62652
 Alpha virt. eigenvalues --    2.63131   2.64336   2.64747   2.65533   2.66517
 Alpha virt. eigenvalues --    2.68336   2.72590   2.74886   2.76954   2.77332
 Alpha virt. eigenvalues --    2.79179   2.80212   2.80867   2.82100   2.83485
 Alpha virt. eigenvalues --    2.84850   2.88100   2.91083   2.96431   2.97364
 Alpha virt. eigenvalues --    2.98201   2.99254   3.08119   3.09982   3.25595
 Alpha virt. eigenvalues --    3.26045   3.41655   3.47534   4.29079   4.30773
 Alpha virt. eigenvalues --    4.32148   4.33253   4.35774   4.36247   4.37785
 Alpha virt. eigenvalues --    4.40747   4.41236   4.42276   4.44642   4.46838
 Alpha virt. eigenvalues --    4.47419   4.48800   4.49347   4.53109   4.55857
 Alpha virt. eigenvalues --    4.58298   4.60945   4.71289   4.73715   4.75451
 Alpha virt. eigenvalues --    4.80488   4.89807
          Condensed to atoms (all electrons):
 Mulliken charges:
               1
     1  C   -0.245365
     2  C   -0.236198
     3  C   -0.093406
     4  C    0.734684
     5  C   -0.582797
     6  C   -0.450566
     7  N   -0.028563
     8  C   -0.418260
     9  C   -0.268298
    10  C   -0.160383
    11  C   -0.242564
    12  C   -0.351768
    13  H    0.246974
    14  H    0.246835
    15  H    0.261379
    16  H    0.247206
    17  H    0.268725
    18  C   -0.407580
    19  H    0.238511
    20  C   -0.524051
    21  C   -0.469344
    22  H    0.243566
    23  C   -0.184566
    24  O   -0.262817
    25  Cl   0.075825
    26  H    0.228533
    27  H    0.240617
    28  H    0.271107
    29  C   -0.375582
    30  C   -0.517507
    31  C   -0.508590
    32  C   -0.396614
    33  C   -0.427358
    34  C   -0.443480
    35  H    0.234846
    36  H    0.244496
    37  H    0.230408
    38  H    0.236684
    39  H    0.230427
    40  H    0.241589
    41  H    0.238976
    42  H    0.220011
    43  H    0.241394
    44  H    0.235035
    45  H    0.231564
    46  H    0.254565
    47  H    0.253255
    48  H    0.249804
    49  H    0.225550
    50  H    0.251525
    51  H    0.230395
    52  H    0.241173
 Sum of Mulliken charges =   0.00000
 Mulliken charges with hydrogens summed into heavy atoms:
               1
     1  C    0.001609
     2  C    0.010636
     3  C    0.175319
     4  C    0.734684
     5  C   -0.321418
     6  C   -0.203360
     7  N   -0.028563
     8  C   -0.418260
     9  C   -0.029786
    10  C   -0.160383
    11  C    0.001001
    12  C   -0.351768
    18  C   -0.407580
    20  C   -0.524051
    21  C    0.270913
    23  C   -0.184566
    24  O   -0.262817
    25  Cl   0.075825
    29  C    0.347511
    30  C    0.211102
    31  C    0.212574
    32  C    0.312086
    33  C    0.282391
    34  C    0.256902
 Electronic spatial extent (au):  <R**2>=           9039.1593
 Charge=              0.0000 electrons
 Dipole moment (field-independent basis, Debye):
    X=              4.1137    Y=              0.7178    Z=              0.2645  Tot=              4.1842
 Quadrupole moment (field-independent basis, Debye-Ang):
   XX=           -128.8577   YY=           -160.3461   ZZ=           -148.4457
   XY=             11.8039   XZ=             -2.2358   YZ=             -2.5337
 Traceless Quadrupole moment (field-independent basis, Debye-Ang):
   XX=             17.0255   YY=            -14.4629   ZZ=             -2.5626
   XY=             11.8039   XZ=             -2.2358   YZ=             -2.5337
 Octapole moment (field-independent basis, Debye-Ang**2):
  XXX=            129.0572  YYY=             -2.3685  ZZZ=             -2.1135  XYY=             -6.4187
  XXY=              8.0316  XXZ=            -11.8433  XZZ=             20.0689  YZZ=             -5.7123
  YYZ=              3.7650  XYZ=             -7.7014
 Hexadecapole moment (field-independent basis, Debye-Ang**3):
 XXXX=          -7278.1987 YYYY=          -2626.4902 ZZZZ=          -1895.5337 XXXY=            220.6780
 XXXZ=             56.4957 YYYX=             45.9333 YYYZ=             -4.0161 ZZZX=            -22.2490
 ZZZY=            -33.6334 XXYY=          -1801.0401 XXZZ=          -1605.5362 YYZZ=           -768.7372
 XXYZ=            -82.1690 YYXZ=            -31.0023 ZZXY=             36.1632
 N-N= 2.304079912059D+03 E-N=-7.896033738856D+03  KE= 1.397287841893D+03
 No NMR shielding tensors so no spin-rotation constants.
 Leave Link  601 at Tue Jul 10 17:49:49 2018, MaxMem=  3221225472 cpu:         3.2
 (Enter /ihome/crc/build/g09/g09-D.01/TAR/g09/l701.exe)
 Compute integral first derivatives.
 ... and contract with generalized density number  0.
 D1PCM: PCM CHGder 1st derivatives, ID1Alg=3 FixD1E=F DoIter=F DoCFld=F I1PDM=0.
 GePol: Maximum number of non-zero 1st derivatives   =     352
 Leave Link  701 at Tue Jul 10 17:49:52 2018, MaxMem=  3221225472 cpu:        41.0
 (Enter /ihome/crc/build/g09/g09-D.01/TAR/g09/l702.exe)
 L702 exits ... SP integral derivatives will be done elsewhere.
 Leave Link  702 at Tue Jul 10 17:49:52 2018, MaxMem=  3221225472 cpu:         0.2
 (Enter /ihome/crc/build/g09/g09-D.01/TAR/g09/l703.exe)
 Compute integral first derivatives, UseDBF=F ICtDFT=           0.
 Integral derivatives from FoFJK, PRISM(SPDF).
 Calling FoFJK, ICntrl=      2127 FMM=F ISym2X=0 I1Cent= 0 IOpClX= 0 NMat=1 NMatS=1 NMatT=0.
 FoFJK:  IHMeth= 1 ICntrl=    2127 DoSepK=F KAlg= 0 I1Cent=   0 FoldK=F
 IRaf=         0 NMat=   1 IRICut=       1 DoRegI=T DoRafI=F ISym2E= 0.
 FoFCou: FMM=F IPFlag=           0 FMFlag=      100000 FMFlg1=         800
         NFxFlg=           0 DoJE=F BraDBF=F KetDBF=F FulRan=T
         wScrn=  0.000000 ICntrl=    2127 IOpCl=  0 I1Cent=           0 NGrid=           0
         NMat0=    1 NMatS0=      1 NMatT0=    0 NMatD0=    1 NMtDS0=    0 NMtDT0=    0
 Symmetry not used in FoFCou.
 Leave Link  703 at Tue Jul 10 17:50:12 2018, MaxMem=  3221225472 cpu:       321.4
 (Enter /ihome/crc/build/g09/g09-D.01/TAR/g09/l716.exe)
 Dipole        = 1.61845642D+00 2.82399195D-01 1.04062536D-01
 ***** Axes restored to original set *****
 -------------------------------------------------------------------
 Center     Atomic                   Forces (Hartrees/Bohr)
 Number     Number              X              Y              Z
 -------------------------------------------------------------------
      1        6          -0.000247320    0.000116741    0.000178391
      2        6          -0.000322948   -0.000274785   -0.000154119
      3        6          -0.000277439   -0.000309535    0.000123372
      4        6           0.000948335    0.000141007   -0.000046775
      5        6           0.000117754   -0.001326516    0.000001310
      6        6           0.000253012    0.000321218   -0.000021304
      7        7           0.001145218    0.000331937    0.000258900
      8        6          -0.000334440   -0.000556563   -0.000168089
      9        6           0.000619959   -0.000105908   -0.000602740
     10        6          -0.000193842    0.001256072    0.000450798
     11        6           0.000183747   -0.000000036   -0.000232650
     12        6          -0.000455444    0.000237672   -0.000476610
     13        1           0.000087353   -0.000096240    0.000030412
     14        1           0.000066547    0.000090255   -0.000056028
     15        1          -0.000488157    0.000587138   -0.000536105
     16        1          -0.000139022    0.000049099    0.000094156
     17        1           0.000036269    0.000018942   -0.000198006
     18        6          -0.000163681   -0.000663058    0.000225942
     19        1          -0.000496945   -0.000358703    0.000477129
     20        6          -0.000116964    0.000012975    0.000942123
     21        6           0.000315899   -0.000846232    0.000363412
     22        1          -0.000091990   -0.000422751    0.000429309
[...]
 594,-0.00000313,0.00004241,0.00023545,-0.00018466,0.00072190,0.0000802
 4,0.00027827,0.00001565,-0.00032401,0.00002577,0.00007538,0.00057225,0
 .00019725,0.00009109,-0.00111328,0.00142415,0.00010760,0.00064009,-0.0
 0083035,-0.00626750,0.00000108,0.00000322,-0.00000195,0.00000338,0.000
 00344,0.00000811,0.00000981,0.00002332,0.00004121,-0.00001356,-0.00000
 442,-0.00001872,-0.00000531,-0.00000116,0.00000345,0.00005780,0.000035
 29,-0.00001891,-0.00003930,-0.00002424,-0.00001799,-0.01817141,0.02659
 780,-0.00505122,-0.00009594,0.00003026,0.00001176,-0.00008100,-0.00009
 873,-0.00012847,-0.00005852,0.00006766,-0.00013086,0.00003588,-0.00003
 770,0.00009191,-0.00000440,0.00002190,0.00002855,-0.00000446,0.0000334
 2,-0.00002333,0.00001159,-0.00000691,-0.00000876,-0.00000069,0.0000334
 2,-0.00001617,0.00038578,0.00114144,0.00141339,-0.01314096,0.01894655,
 -0.04758259,-0.00124587,0.00082500,0.00102933,-0.00001445,-0.00000294,
 0.00003490,-0.00006069,-0.00001340,-0.00000779,-0.00006791,0.00002385,
 -0.00002009,0.00000876,-0.00001752,0.00000327,0.00000881,0.00000971,0.
 00001199,-0.00000183,0.00000767,0.00002421,0.00001415,-0.00001372,0.00
 000600,-0.00001857,-0.00000318,0.00000291,0.00000589,0.00000261,-0.000
 00139,0.00000008,0.00000455,0.00000597,0.00000572,-0.00001037,0.000020
 07,-0.00002454,-0.00000377,0.00003447,-0.00010879,-0.00026086,0.000306
 44,0.00064763,-0.00028773,-0.00068662,0.00015807,-0.00000376,-0.000030
 59,0.00721153,-0.01432995,0.00139724,0.00862368,-0.01004934,0.00062376
 ,0.01549553,-0.02277412,0.05395571,0.00000396,-0.00001704,-0.00003454,
 0.00000293,-0.00003390,0.00000654,-0.00001232,-0.00000388,-0.00003271,
 0.00000007,-0.00003702,-0.00000923,-0.00002348,0.00001289,0.00001569,0
 .00000712,-0.00002502,0.00000944,0.00022204,0.00209586,0.00046095,0.00
 060215,-0.00052420,0.00016191,0.00016124,0.00019452,-0.00042533,-0.000
 35007,0.00024064,0.00016217,0.00015524,-0.00050834,0.00023631,-0.00095
 166,0.00124580,-0.00007564,0.00000635,0.00000600,0.00000207,0.00000476
 ,0.00000387,0.00000349,0.00000015,-0.00000254,0.00000120,-0.00000190,0
 .00000423,0.00000082,0.00000529,0.00000709,0.00000135,0.00002999,0.000
 04971,0.00006966,-0.00001264,0.00000826,-0.00005580,-0.01516090,-0.001
 15715,0.00832343,-0.00001446,-0.00000454,-0.00002472,0.00001353,0.0000
 6806,-0.00004502,-0.00010963,0.00007381,0.00004995,0.00002915,-0.00002
 722,-0.00000548,0.00004354,-0.00000889,-0.00003551,0.00001741,0.000007
 79,-0.00000940,0.00000768,0.00000911,-0.00000809,0.00000656,-0.0000017
 1,-0.00000402,-0.25401503,-0.02108669,0.11526398,0.00044052,0.00051457
 ,0.00103190,-0.00097639,-0.00368411,-0.00242181,0.00001632,0.00000424,
 0.00000354,-0.00002259,-0.00000605,-0.00000233,0.00006266,0.00007159,0
 .00002827,-0.00000192,0.00000839,0.00000013,-0.00000149,-0.00000509,-0
 .00000205,-0.00000226,0.00000951,0.00000605,-0.00000429,0.00000357,-0.
 00000640,-0.00000214,-0.00000014,-0.00000122,-0.00000475,-0.00000205,-
 0.00000376,-0.00002984,-0.00005288,0.00000647,-0.00001730,-0.00001648,
 -0.00000839,0.00001239,-0.00004253,-0.00004225,0.00018046,0.00009629,0
 .00013112,0.00033200,0.00007311,-0.00010260,-0.00096004,-0.00019338,0.
 00072674,0.00005950,-0.00005620,-0.00075824,0.00030024,0.00000206,-0.0
 0006123,-0.00003505,-0.00006706,-0.00005164,0.27540946,-0.00000137,-0.
 00002696,-0.00003309,0.00000603,-0.00003474,0.00001107,-0.00002871,0.0
 0000094,-0.00001799,0.00001248,-0.00002326,-0.00000445,-0.00000990,0.0
 0001717,0.00001284,0.00000003,-0.00001884,0.00000620,-0.00010656,0.001
 09574,0.00042405,0.00060602,-0.00052636,-0.00002506,0.00010390,0.00028
 688,-0.00031132,-0.00035263,0.00013773,0.00009328,0.00012059,-0.000270
 30,0.00018448,-0.00118599,0.00079877,0.00076910,0.00000370,0.00000293,
 0.00000226,0.00000135,0.00000264,0.00000071,-0.00000235,-0.00000035,-0
 .00000230,0.00000022,0.00000171,-0.00000115,0.00000196,0.00000442,0.00
 000125,0.00002796,-0.00001526,0.00000322,-0.00000156,0.00002788,-0.000
 05488,-0.02126471,-0.00321252,0.01252077,-0.00001184,0.00000737,-0.000
 00822,0.00002037,0.00009005,-0.00004973,-0.00011268,0.00006144,0.00002
 333,0.00003593,-0.00002320,0.00000922,0.00004346,-0.00000067,-0.000026
 94,0.00001057,0.00000438,-0.00001163,0.00001157,0.00000871,-0.00000978
 ,0.00000755,0.00000598,-0.00000839,-0.01880495,-0.04866803,0.01126073,
 0.00060876,0.00075028,0.00126007,-0.00209854,-0.00410529,-0.00240252,0
 .00000469,-0.00001172,0.00000291,-0.00002003,-0.00000869,-0.00002136,-
 0.00005173,-0.00004341,-0.00001100,0.00000155,0.00001221,0.00000205,0.
 00000596,-0.00000219,0.00000289,-0.00000638,0.00001055,0.00001134,-0.0
 0000223,0.00000878,-0.00000324,-0.00001630,0.00000671,0.00000727,0.000
 01945,0.00000233,0.00001055,0.00015511,-0.00001205,-0.00006450,-0.0000
 2545,0.00003941,0.00003398,-0.00000225,0.00000353,-0.00001708,0.000274
 17,-0.00004212,-0.00014247,-0.00016174,0.00024081,-0.00006620,-0.00158
 883,0.00010344,0.00054606,0.00022967,0.00027372,-0.00035414,0.00025572
 ,-0.00010478,0.00011988,0.00004867,-0.00001042,-0.00011231,0.02401260,
 0.05074096,-0.00000601,-0.00001002,-0.00001357,-0.00000327,-0.00000454
 ,0.00001424,-0.00000965,-0.00000274,-0.00001115,-0.00000386,-0.0000003
 2,0.00001010,0.00000451,0.00001530,0.00000990,0.00001166,0.00000394,0.
 00000390,-0.00024264,-0.00043913,-0.00012566,-0.00005117,0.00014369,-0
 .00009632,-0.00001751,0.00005751,0.00007133,0.00003022,-0.00002970,-0.
 00003042,0.00004080,0.00015077,0.00005161,0.00046743,0.00011983,0.0000
 1200,-0.00000132,-0.00000008,-0.00000035,-0.00000116,-0.00000017,-0.00
 000081,-0.00000035,-0.00000631,-0.00000227,-0.00000483,-0.00000129,-0.
 00000261,0.00000047,-0.00000115,-0.00000044,-0.00001919,-0.00004557,-0
 .00000686,0.00000785,0.00000868,0.00001054,-0.01075075,-0.00031176,0.0
 0437530,0.00000042,-0.00000410,-0.00000331,-0.00002412,-0.00002176,-0.
 00001095,0.00000846,-0.00000646,0.00000418,-0.00000365,0.00000476,-0.0
 0000504,-0.00000160,-0.00000118,-0.00000008,-0.00000168,0.00000213,-0.
 00000285,-0.00000690,-0.00000511,0.00000201,-0.00000365,-0.00000351,0.
 00000374,0.11614114,0.01271880,-0.11319031,-0.00071131,0.00015297,0.00
 117058,-0.00125187,-0.00169464,-0.00039669,0.00001059,0.00004138,0.000
 02834,0.00001256,0.00001191,-0.00001043,-0.00003518,0.00001012,-0.0000
 0302,0.00000072,0.00000140,-0.00000054,-0.00000475,-0.00000526,-0.0000
 0523,0.00000212,-0.00000630,-0.00000382,-0.00000554,-0.00000594,-0.000
 00841,-0.00000017,-0.00000772,-0.00000966,-0.00002064,-0.00000786,-0.0
 0001515,0.00008552,-0.00000179,0.00003588,-0.00000778,0.00002248,-0.00
 000141,-0.00002390,-0.00001877,-0.00003890,-0.00010397,-0.00008120,0.0
 0027581,0.00013318,-0.00011196,-0.00013024,-0.00048977,-0.00024090,0.0
 0064727,0.00011082,-0.00019147,0.00004335,0.00010014,0.00009411,0.0001
 3516,-0.00002852,0.00010293,-0.00002287,-0.12599681,-0.01152270,0.1191
 3791,-0.00000358,0.00000277,0.00000684,-0.00000132,0.00001268,0.000004
 22,0.00000411,0.00000136,0.00000494,0.00000442,0.00001787,0.00000880,0
 .00000824,0.00000139,-0.00000108,0.00000484,0.00001024,-0.00000448,0.0
 0040053,0.00063507,-0.00021922,0.00037183,-0.00031219,0.00038063,0.000
 26738,0.00004371,-0.00027724,-0.00021900,0.00032603,0.00033899,0.00057
 207,-0.00080312,0.00046396,-0.00240828,-0.00135940,-0.00103006,-0.0000
 0271,-0.00000259,-0.00000134,-0.00000321,-0.00000278,-0.00000187,-0.00
 000155,-0.00000344,-0.00000211,-0.00000305,-0.00000224,-0.00000294,-0.
 00000126,-0.00000202,-0.00000126,0.00000108,0.00002324,0.00003393,-0.0
 0003640,-0.00002359,-0.00007258,0.00710097,-0.01632768,0.00110456,-0.0
 0001256,-0.00002215,-0.00005176,-0.00003566,-0.00006469,-0.00008721,0.
 00003931,-0.00002011,0.00000355,-0.00001195,0.00000705,-0.00000951,-0.
 00001079,-0.00000218,0.00000701,0.00001140,0.00000155,-0.00000361,-0.0
 0000242,0.00000087,-0.00000235,0.00000595,-0.00001061,0.00000539,-0.11
 845763,0.11821880,-0.01373570,0.00066552,-0.00012709,0.00070823,0.0011
 7225,-0.00070869,-0.00011686,0.00000509,-0.00002139,-0.00002047,-0.000
 00491,-0.00000540,-0.00000658,-0.00000303,-0.00003384,-0.00002742,-0.0
 0000102,0.00001262,0.00000180,0.00000215,0.00000052,0.00000222,-0.0000
 0203,0.00000709,0.00000107,-0.00000417,0.00000950,-0.00000218,0.000000
 15,0.00000810,0.00000647,0.00001414,0.00000562,0.00001054,0.00003531,0
 .00000983,-0.00001935,-0.00000628,0.00001925,0.00001348,0.00000797,0.0
 0000390,-0.00000089,-0.00002973,0.00008160,0.00015773,-0.00044666,-0.0
 0000832,-0.00017352,0.00028229,0.00013232,-0.00003857,-0.00000639,0.00
 013610,-0.00006148,0.00004649,0.00001336,0.00027683,0.00000822,0.00019
 685,0.00005888,-0.01282592,0.02361774,-0.00485660,0.12689364,-0.000008
 30,0.00001287,-0.00000629,-0.00000061,0.00000721,0.00000918,0.00001187
 ,-0.00001015,-0.00002699,-0.00005168,0.00003772,0.00000235,0.00000118,
 -0.00001872,0.00001642,-0.00000304,0.00000649,0.00001026,0.00013721,-0
 .00014742,-0.00011679,-0.00000265,-0.00005850,0.00047165,0.00033595,-0
 .00015691,-0.00015711,-0.00009481,0.00034325,0.00038650,0.00082562,-0.
 00091655,-0.00006789,-0.00468143,-0.00195959,-0.00229536,-0.00000395,-
 0.00000128,0.00000241,-0.00001135,-0.00000051,-0.00000207,0.00000869,-
 0.00000180,0.00000968,-0.00000336,-0.00000167,-0.00000960,0.00000987,0
 .00000344,-0.00000154,-0.00005475,-0.00003830,0.00006745,-0.00001072,-
 0.00004918,-0.00003202,0.01335004,-0.02259677,0.00257591,0.00007815,-0
 .00004844,-0.00004154,-0.00010877,-0.00007126,-0.00007744,0.00017214,-
 0.00003430,0.00001350,-0.00006937,0.00001336,-0.00003932,-0.00006202,-
 0.00001501,0.00002315,-0.00000071,-0.00003326,0.00003745,-0.00002432,-
 0.00000154,0.00001050,-0.00000146,-0.00004312,0.00002292,0.11730787,-0
 .23910884,0.02429167,0.00086143,0.00091240,0.00116840,0.00142832,0.000
 80494,0.00016617,0.00002205,-0.00000536,-0.00007295,0.00006833,0.00002
 600,-0.00000282,0.00004518,-0.00003338,-0.00002726,-0.00000827,0.00001
 829,0.00000145,-0.00001051,0.00000226,0.00000602,0.00001812,-0.0000161
 1,-0.00003504,-0.00001611,0.00001374,-0.00000058,0.00004410,0.00000301
 ,-0.00000399,-0.00000634,0.00000022,0.00000736,-0.00000319,-0.00000598
 ,-0.00000270,0.00003065,0.00000752,-0.00002230,0.00000177,-0.00000186,
 0.00001515,-0.00011777,-0.00009926,0.00003475,-0.00070751,0.00035869,0
 .00022129,-0.00008173,0.00033952,-0.00015398,-0.00008725,-0.00005574,-
 0.00011557,-0.00024458,0.00029691,0.00013091,-0.00023647,0.00044876,-0
 .00055458,-0.00207864,0.00371744,-0.00095519,-0.12743603,0.26124851,-0
 .00000532,0.00000322,-0.00000545,-0.00000567,0.00000010,0.00000559,0.0
 0000321,-0.00000332,-0.00001216,-0.00000442,0.00000548,0.00000474,-0.0
 0000131,0.00000368,0.00000250,0.00001303,0.00000078,0.00000629,0.00052
 836,-0.00068056,-0.00004093,-0.00036244,0.00041166,-0.00013299,-0.0000
 8005,-0.00025498,0.00023578,0.00028649,-0.00015796,0.00007924,0.000314
 48,-0.00014978,-0.00000589,-0.00159899,-0.00148179,-0.00018295,0.00000
 282,0.00000265,-0.00000086,-0.00000013,-0.00000037,0.00000283,0.000001
 21,-0.00000625,-0.00000082,-0.00000636,-0.00000134,-0.00000524,0.00000
 177,0.00000225,-0.00000044,-0.00003227,-0.00002530,-0.00001893,0.00000
 586,-0.00000716,0.00001932,0.00643000,-0.01028127,-0.00005233,0.000044
 55,-0.00000383,0.00001661,-0.00006628,-0.00004321,-0.00006731,0.000021
 85,-0.00000553,0.00001611,-0.00000928,0.00000504,-0.00001479,-0.000006
 44,-0.00000554,-0.00000242,-0.00000573,-0.00002325,0.00001942,-0.00001
 005,-0.00000347,0.00000102,-0.00000055,-0.00000628,0.00000750,-0.01436
 941,0.02486736,-0.05134770,0.00067491,-0.00060449,0.00048187,0.0005286
 0,0.00056128,0.00011237,-0.00000807,-0.00000713,-0.00001280,0.00002374
 ,0.00000591,0.00000509,0.00001599,-0.00000795,0.00000149,-0.00000220,0
 .00000079,-0.00000304,-0.00000210,0.00000075,0.00000155,0.00000337,-0.
 00000688,-0.00000783,-0.00000084,0.00000117,-0.00000052,0.00000778,0.0
 0000244,0.00000288,0.00000327,0.00000638,0.00000202,-0.00001670,0.0000
 0580,0.00000668,0.00000867,-0.00000203,-0.00000852,-0.00000027,-0.0000
 0016,0.00000592,-0.00012758,0.00006332,-0.00007037,0.00002552,0.000329
 45,0.00019932,0.00005425,0.00001114,-0.00016392,0.00014336,0.00003645,
 -0.00007224,0.00008792,0.00018073,0.00013213,-0.00039476,-0.00020700,-
 0.00019278,0.00728227,-0.01449469,0.00175248,0.01720501,-0.02514718,0.
 05085594,0.00000745,-0.00000047,0.00001604,0.00000637,0.00000263,-0.00
 001854,0.00000059,0.00001098,0.00001374,0.00000065,0.00000256,-0.00001
 143,0.00000618,-0.00002003,-0.00000347,-0.00002407,0.00000357,0.000003
 38,0.00028934,-0.00005741,0.00015181,-0.00012227,0.00018317,-0.0002117
 4,-0.00012090,-0.00008045,0.00007158,0.00010010,-0.00012621,-0.0000292
 9,0.00010166,0.00003639,-0.00001583,-0.00010853,0.00081288,0.00025982,
 -0.00000602,-0.00000273,0.00000108,-0.00000104,0.00000054,-0.00000190,
 -0.00000029,0.00001519,0.00001351,0.00001113,0.00000100,0.00000773,-0.
 00000277,-0.00000610,0.00000014,0.00001032,0.00000155,0.00002415,0.000
 01071,0.00001708,0.00001777,-0.00413073,0.00342169,-0.01564459,0.00002
 520,-0.00000061,0.00000934,-0.00003033,-0.00003959,0.00001215,0.000018
 13,0.00001356,-0.00004506,-0.00000260,-0.00001227,0.00002701,-0.000015
 94,0.00000200,0.00001620,0.00000076,-0.00000211,0.00000080,-0.00000663
 ,-0.00000383,0.00000039,-0.00000431,0.00000103,0.00000291,-0.05729083,
 0.00757704,-0.04729627,-0.00164214,-0.00333119,-0.00088100,0.00075705,
 0.00071838,-0.00108355,0.00000508,0.00001791,0.00001578,-0.00000980,0.
 00000549,-0.00000548,-0.00000081,0.00000580,-0.00000887,0.00000115,0.0
 0000187,-0.00000015,-0.00000138,-0.00000221,0.00000013,0.00000162,0.00
 000004,0.00000204,-0.00000185,-0.00000004,-0.00000204,-0.00000032,-0.0
 0000465,-0.00000666,-0.00000893,-0.00000810,-0.00000266,0.00002960,-0.
 00001939,0.00001338,-0.00000269,0.00000417,-0.00000038,-0.00000335,-0.
 00001675,-0.00001542,-0.00060421,-0.00025280,0.00035980,-0.00007032,0.
 00004591,-0.00002881,0.00017199,0.00006071,0.00018981,0.00015110,0.000
 08826,-0.00016410,0.00014265,-0.00001284,-0.00125276,0.00008498,-0.000
 11665,0.00034335,0.00740335,-0.00439105,0.02752151,-0.00338384,0.00146
 918,-0.01660104,0.05825975,0.00000579,-0.00001317,0.00001955,0.0000111
 3,-0.00000175,-0.00002394,-0.00000951,0.00001400,0.00001941,0.00000964
 ,-0.00000898,-0.00001784,0.00001571,-0.00001102,-0.00000519,-0.0000239
 2,0.00000205,0.00000726,0.00034073,0.00003294,0.00017129,0.00000681,0.
 00008293,-0.00011685,-0.00012341,-0.00004377,0.00009431,0.00016488,-0.
 00019545,-0.00001593,0.00000048,0.00033443,0.00018688,-0.00050548,0.00
 154656,-0.00127065,-0.00000029,-0.00000051,0.00000104,-0.00000060,0.00
 000031,0.00000104,-0.00000166,0.00001711,0.00001107,0.00001297,-0.0000
 0061,0.00000624,-0.00000393,-0.00000161,0.00000161,0.00001269,-0.00000
 332,-0.00000622,-0.00000323,0.00000023,0.00000743,-0.00391427,0.002900
 47,-0.02447373,-0.00000725,0.00000364,0.00000854,-0.00006571,-0.000031
 64,0.00000658,-0.00003761,0.00003371,-0.00003652,0.00001928,-0.0000191
 9,0.00003205,0.00000652,0.00000217,0.00000490,0.00000217,-0.00000101,-
 0.00000438,0.00000009,-0.00000464,-0.00000337,-0.00000110,0.00000853,0
 .00000115,0.00783053,-0.05387982,0.03953785,-0.00274905,-0.00396092,-0
 .00146927,0.00113718,0.00082280,-0.00060075,-0.00000551,-0.00000331,0.
 00000962,-0.00001673,-0.00000572,-0.00000172,-0.00001337,0.00000339,-0
 .00000872,0.00000164,-0.00000255,0.00000033,0.00000307,0.00000014,0.00
 000171,-0.00000206,0.00000289,0.00000692,0.00000329,-0.00000431,-0.000
 00066,-0.00000712,0.00000070,0.00000441,0.00000429,0.00000560,0.000001
 93,0.00000728,0.00000228,0.00000407,-0.00000255,-0.00000101,0.00000698
 ,-0.00000102,-0.00000384,0.00000135,-0.00009757,0.00017659,0.00042044,
 -0.00008553,-0.00002713,0.00011349,0.00026841,-0.00004673,0.00004487,0
 .00005184,-0.00012983,0.00020228,-0.00056489,0.00046386,-0.00159313,-0
 .00022161,0.00020342,-0.00006347,0.00081916,-0.00130379,0.00208387,0.0
 0374251,-0.00309173,0.02711086,-0.00601312,0.05613662,0.00001279,-0.00
 001819,0.00001792,0.00001646,-0.00000726,-0.00003099,-0.00001380,0.000
 01936,0.00001562,0.00000724,-0.00001207,-0.00002943,-0.00002055,-0.000
 03945,-0.00000191,-0.00004200,-0.00001841,0.00000384,0.00080271,-0.000
 48030,-0.00019193,-0.00021022,0.00009832,-0.00011079,-0.00000107,-0.00
 014424,0.00010055,0.00002376,-0.00012552,-0.00000439,0.00025369,-0.000
 23748,0.00017118,-0.00090174,0.00083941,0.00029761,-0.00000345,0.00000
 052,0.00000336,0.00000179,0.00000326,-0.00000021,0.00000398,0.00002736
 ,0.00002143,0.00001935,0.00000458,0.00001359,-0.00000164,-0.00000303,0
 .00000173,-0.00000173,-0.00000561,-0.00001777,0.00000630,-0.00001292,0
 .00002211,-0.00097937,0.00224741,-0.01173382,0.00002441,-0.00000670,0.
 00000331,-0.00002029,-0.00003115,-0.00002231,-0.00002536,0.00006521,-0
 .00006773,0.00001434,-0.00004208,0.00005633,-0.00000771,-0.00000222,0.
 00001468,0.00000370,-0.00002244,0.00001305,-0.00000841,-0.00000553,-0.
 00000137,-0.00000318,-0.00000014,0.00000774,-0.04813640,0.03828491,-0.
 30058728,-0.00157899,-0.00329100,0.00025871,0.00087142,0.00052763,0.00
 063293,-0.00001674,-0.00003241,-0.00002114,0.00000141,-0.00000425,0.00
 000419,-0.00001314,-0.00001285,-0.00000956,0.00000088,-0.00000612,0.00
 000090,0.00000530,0.00000743,0.00000869,0.00000209,-0.00000061,-0.0000
 0234,0.00000615,-0.00000498,0.00000593,0.00000427,0.00000695,0.0000105
 2,0.00001620,0.00001676,0.00000878,-0.00002499,0.00001498,-0.00001799,
 0.00001339,-0.00000743,0.00000010,0.00000458,0.00001581,0.00003580,-0.
 00040262,-0.00001599,0.00037857,-0.00001672,-0.00009311,-0.00001504,0.
 00004602,-0.00014802,0.00026648,0.00006247,0.00006750,0.00032245,-0.00
 033950,0.00012913,-0.00088868,0.00004733,0.00015073,0.00018174,-0.0037
 6128,0.00245767,-0.01364628,0.00002316,0.00026559,-0.00155346,0.054235
 71,-0.04041900,0.32607459\\-0.00000044,-0.00001288,-0.00000348,-0.0000
 0024,-0.00000906,-0.00000267,-0.00000327,-0.00000770,-0.00000683,-0.00
 000200,-0.00000913,-0.00000622,0.00000757,-0.00001427,0.00001065,-0.00
 000418,-0.00000607,0.00000086,0.00001225,-0.00001307,0.00000006,-0.000
 00772,0.00002163,0.00000245,0.00000393,-0.00000363,0.00000004,0.000018
 47,-0.00000618,-0.00001110,-0.00000431,0.00001281,-0.00000138,-0.00001
 235,-0.00000042,0.00001163,0.00000038,-0.00001698,-0.00000186,-0.00000
 268,-0.00001230,-0.00000051,0.00000620,0.00001042,-0.00000277,-0.00000
 112,-0.00000484,-0.00000072,0.00000388,-0.00001216,-0.00000573,0.00000
 525,0.00000342,-0.00000558,0.00000532,0.00000495,-0.00000166,-0.000007
 33,-0.00001229,-0.00000982,-0.00000077,-0.00000710,0.00000816,0.000001
 67,-0.00000822,0.00000099,0.00002399,0.00000183,-0.00004808,0.00001688
 ,-0.00001040,0.00001396,-0.00001652,0.00000199,0.00001596,0.00000272,-
 0.00000180,-0.00000546,0.00000661,-0.00000393,-0.00000957,0.00000326,-
 0.00000431,-0.00001306,-0.00000523,0.00000374,0.00000640,0.00000077,0.
 00000515,0.00000882,-0.00000379,-0.00000468,0.00000174,-0.00000468,0.0
 0001528,-0.00000033,0.00000812,0.00001701,0.00000288,-0.00000020,0.000
 01086,0.00000022,0.00000459,0.00000990,-0.00000387,0.00000340,0.000009
 18,-0.00000464,0.00000518,0.00001339,-0.00000221,0.00000174,0.00000653
 ,0.00000191,0.00000154,0.00001370,0.00000118,-0.00000057,0.00000939,0.
 00000306,-0.00000388,0.00001088,0.00000484,-0.00000194,0.00001235,0.00
 000409,-0.00000256,0.00001157,0.00000694,-0.00000395,-0.00000772,0.000
 00241,-0.00000813,-0.00000868,0.00000345,-0.00000157,-0.00000619,0.000
 00184,-0.00000600,0.00000373,0.00000673,-0.00000528,-0.00000322,0.0000
 0117,-0.00000885,-0.00000033,0.00000426,-0.00000647,0.00000254,0.00000
 693,-0.00000974,-0.00000073,0.00000901,-0.00000797,-0.00000393,0.00000
 488\\\@


 THE MORE ACCURATE THE CALCULATIONS BECOME, THE MORE THE CONCEPTS
 TEND TO VANISH INTO THIN AIR.
     -- R.S. MULLIKEN, J.C.P. 43,S2(1965)
 Job cpu time:       0 days 14 hours 25 minutes 26.8 seconds.
 File lengths (MBytes):  RWF=   4014 Int=      0 D2E=      0 Chk=     34 Scr=      1
 Normal termination of Gaussian 09 at Tue Jul 10 20:11:10 2018.
