 Entering Gaussian System, Link 0=g09
 Initial command:
 /ihome/crc/build/g09/g09-D.01/TAR/g09/l1.exe "/scratch/slurm-1220084/Gau-30637.inp" -scrdir="/scratch/slurm-1220084/"
 Entering Link 1 = /ihome/crc/build/g09/g09-D.01/TAR/g09/l1.exe PID=     30638.
  
 Copyright (c) 1988,1990,1992,1993,1995,1998,2003,2009,2013,
            Gaussian, Inc.  All Rights Reserved.
  
 This is part of the Gaussian(R) 09 program.  It is based on
 the Gaussian(R) 03 system (copyright 2003, Gaussian, Inc.),
 the Gaussian(R) 98 system (copyright 1998, Gaussian, Inc.),
 the Gaussian(R) 94 system (copyright 1995, Gaussian, Inc.),
 the Gaussian 92(TM) system (copyright 1992, Gaussian, Inc.),
 the Gaussian 90(TM) system (copyright 1990, Gaussian, Inc.),
 the Gaussian 88(TM) system (copyright 1988, Gaussian, Inc.),
 the Gaussian 86(TM) system (copyright 1986, Carnegie Mellon
 University), and the Gaussian 82(TM) system (copyright 1983,
 Carnegie Mellon University). Gaussian is a federally registered
 trademark of Gaussian, Inc.
  
 This software contains proprietary and confidential information,
 including trade secrets, belonging to Gaussian, Inc.
  
 This software is provided under written license and may be
 used, copied, transmitted, or stored only in accord with that
 written license.
  
 The following legend is applicable only to US Government
 contracts under FAR:
  
                    RESTRICTED RIGHTS LEGEND
  
 Use, reproduction and disclosure by the US Government is
 subject to restrictions as set forth in subparagraphs (a)
 and (c) of the Commercial Computer Software - Restricted
 Rights clause in FAR 52.227-19.
  
 Gaussian, Inc.
 340 Quinnipiac St., Bldg. 40, Wallingford CT 06492
  
  
 ---------------------------------------------------------------
 Warning -- This program may not be used in any manner that
 competes with the business of Gaussian, Inc. or will provide
 assistance to any competitor of Gaussian, Inc.  The licensee
 of this program is prohibited from giving any competitor of
 Gaussian, Inc. access to this program.  By using this program,
 the user acknowledges that Gaussian, Inc. is engaged in the
 business of creating and licensing software in the field of
 computational chemistry and represents and warrants to the
 licensee that it is not a competitor of Gaussian, Inc. and that
 it will not use this program in any manner prohibited above.
 ---------------------------------------------------------------
  

 Cite this work as:
 Gaussian 09, Revision D.01,
 M. J. Frisch, G. W. Trucks, H. B. Schlegel, G. E. Scuseria, 
 M. A. Robb, J. R. Cheeseman, G. Scalmani, V. Barone, B. Mennucci, 
 G. A. Petersson, H. Nakatsuji, M. Caricato, X. Li, H. P. Hratchian, 
 A. F. Izmaylov, J. Bloino, G. Zheng, J. L. Sonnenberg, M. Hada, 
 M. Ehara, K. Toyota, R. Fukuda, J. Hasegawa, M. Ishida, T. Nakajima, 
 Y. Honda, O. Kitao, H. Nakai, T. Vreven, J. A. Montgomery, Jr., 
 J. E. Peralta, F. Ogliaro, M. Bearpark, J. J. Heyd, E. Brothers, 
 K. N. Kudin, V. N. Staroverov, T. Keith, R. Kobayashi, J. Normand, 
 K. Raghavachari, A. Rendell, J. C. Burant, S. S. Iyengar, J. Tomasi, 
 M. Cossi, N. Rega, J. M. Millam, M. Klene, J. E. Knox, J. B. Cross, 
 V. Bakken, C. Adamo, J. Jaramillo, R. Gomperts, R. E. Stratmann, 
 O. Yazyev, A. J. Austin, R. Cammi, C. Pomelli, J. W. Ochterski, 
 R. L. Martin, K. Morokuma, V. G. Zakrzewski, G. A. Voth, 
 P. Salvador, J. J. Dannenberg, S. Dapprich, A. D. Daniels, 
 O. Farkas, J. B. Foresman, J. V. Ortiz, J. Cioslowski, 
 and D. J. Fox, Gaussian, Inc., Wallingford CT, 2013.
 
 ******************************************
 Gaussian 09:  EM64L-G09RevD.01 24-Apr-2013
                11-Jul-2018 
 ******************************************
 %NProc=8
 Will use up to    8 processors via shared memory.
 %Mem=16GB
 %chk=3c.chk
 ----------------------------------------------------------------------
 #p m062x/6-311+g(d,p) scrf=(smd,solvent=chloroform) Geom=Checkpoint po
 p=nbo output=wfn gfinput
 ----------------------------------------------------------------------
 1/29=2,38=1/1;
 2/12=2,40=1/2;
 3/5=4,6=6,7=111,11=2,14=-4,16=1,24=10,25=1,30=1,70=32201,72=7,74=-55/1,2,3;
 4//1;
 5/5=2,38=5,53=7/2;
 6/7=2,8=2,9=2,10=2,28=1,40=1/1,7;
 99/5=1,6=100,9=1/99;
 Leave Link    1 at Wed Jul 11 20:03:08 2018, MaxMem=  2147483648 cpu:         0.3
 (Enter /ihome/crc/build/g09/g09-D.01/TAR/g09/l101.exe)
 --
 3c
 --
 Structure from the checkpoint file:  "3c.chk"
 Charge =  0 Multiplicity = 1
 Redundant internal coordinates found in file.
 C,0,4.6643196469,0.0357942041,-0.7789174299
 C,0,4.7573331582,-0.7680664473,0.3600261161
 C,0,3.6620640443,0.9938443996,-0.8726322483
 C,0,2.7471150561,1.1506559633,0.1795186413
 C,0,2.8409500515,0.3470305621,1.3193634149
 C,0,3.8479733096,-0.6114925408,1.405207539
 N,0,-1.7517363304,-1.0325684718,0.1311836367
 C,0,-2.5739961918,0.0158571771,0.0450397527
 C,0,-2.3217380517,1.073296456,-0.8372323825
 C,0,-1.1849051469,1.04926959,-1.6391598949
 C,0,-0.3247051018,-0.0469948961,-1.5139991728
 C,0,-0.6454029554,-1.077920869,-0.6283694511
 H,0,5.3715877492,-0.0870457888,-1.5935345334
 H,0,5.5397884524,-1.5182774156,0.4308721382
 H,0,2.1346205674,0.4630036945,2.1341377257
 H,0,3.9172275471,-1.238308877,2.2891397921
 H,0,3.5779224852,1.6230712015,-1.7534680497
 C,0,-3.8088097265,0.0435796121,0.9492062489
 H,0,-3.0071568536,1.9156740597,-0.8972474963
 C,0,0.1915397722,-2.3503818076,-0.4839931115
 C,0,-0.9080663658,2.1617752628,-2.6146197641
 H,0,0.5744989712,-0.0917531773,-2.1216968352
 C,0,1.7080439351,2.1928578738,-0.0027088633
 O,0,1.6151524599,2.9290117491,-0.9361020844
 Cl,0,0.5084296901,2.3527698003,1.3279697347
 H,0,-1.6839140622,2.1910222331,-3.3884798267
 H,0,0.0605750379,2.0332327722,-3.1049802
 H,0,-0.9084698709,3.133516471,-2.1102602475
 C,0,-0.6235535342,-3.5227501896,-1.0543558114
 C,0,0.4697298764,-2.6115429247,1.0034137469
 C,0,1.5229756739,-2.2566492125,-1.2324870528
 C,0,-5.0740664243,0.1991311924,0.0897358808
 C,0,-3.6981652951,1.2417683625,1.9076025126
 C,0,-3.926836328,-1.2401886222,1.7734548789
 H,0,-3.6304984839,2.1907162279,1.3640026762
 H,0,-2.8119697451,1.1530966142,2.5471323218
 H,0,-4.5821746232,1.2870901675,2.5553699393
 H,0,-5.075143092,1.1406091762,-0.4700785459
 H,0,-5.9639971806,0.1924570342,0.7305113394
 H,0,-5.165411814,-0.6240931699,-0.628469892
 H,0,-4.0125658963,-2.1239786141,1.132469152
 H,0,-4.8222489098,-1.184186961,2.4037974399
 H,0,-3.0568912593,-1.3830885279,2.4219975648
 H,0,1.3788640427,-2.1578255996,-2.314879393
 H,0,2.1053113359,-3.1691140851,-1.0590820367
 H,0,2.1219503269,-1.4066095138,-0.8849773688
 H,0,-0.4631110048,-2.7508395357,1.5570107226
 H,0,1.0127271348,-1.7732418524,1.4551672622
 H,0,1.0814608228,-3.515057856,1.1157430671
 H,0,-1.578170135,-3.624898745,-0.5276610313
 H,0,-0.0654318619,-4.4605283456,-0.9434269457
 H,0,-0.8335409028,-3.3751908107,-2.1207195756
 Recover connectivity data from disk.
 NAtoms=     52 NQM=       52 NQMF=       0 NMMI=      0 NMMIF=      0
                NMic=       0 NMicF=      0.
                    Isotopes and Nuclear Properties:
 (Nuclear quadrupole moments (NQMom) in fm**2, nuclear magnetic moments (NMagM)
  in nuclear magnetons)

  Atom         1           2           3           4           5           6           7           8           9          10
 IAtWgt=          12          12          12          12          12          12          14          12          12          12
 AtmWgt=  12.0000000  12.0000000  12.0000000  12.0000000  12.0000000  12.0000000  14.0030740  12.0000000  12.0000000  12.0000000
 NucSpn=           0           0           0           0           0           0           2           0           0           0
 AtZEff=  -3.6000000  -3.6000000  -3.6000000  -3.6000000  -3.6000000  -3.6000000  -4.5500000  -3.6000000  -3.6000000  -3.6000000
 NQMom=    0.0000000   0.0000000   0.0000000   0.0000000   0.0000000   0.0000000   2.0440000   0.0000000   0.0000000   0.0000000
 NMagM=    0.0000000   0.0000000   0.0000000   0.0000000   0.0000000   0.0000000   0.4037610   0.0000000   0.0000000   0.0000000
 AtZNuc=   6.0000000   6.0000000   6.0000000   6.0000000   6.0000000   6.0000000   7.0000000   6.0000000   6.0000000   6.0000000

  Atom        11          12          13          14          15          16          17          18          19          20
 IAtWgt=          12          12           1           1           1           1           1          12           1          12
 AtmWgt=  12.0000000  12.0000000   1.0078250   1.0078250   1.0078250   1.0078250   1.0078250  12.0000000   1.0078250  12.0000000
 NucSpn=           0           0           1           1           1           1           1           0           1           0
 AtZEff=  -3.6000000  -3.6000000  -1.0000000  -1.0000000  -1.0000000  -1.0000000  -1.0000000  -3.6000000  -1.0000000  -3.6000000
 NQMom=    0.0000000   0.0000000   0.0000000   0.0000000   0.0000000   0.0000000   0.0000000   0.0000000   0.0000000   0.0000000
 NMagM=    0.0000000   0.0000000   2.7928460   2.7928460   2.7928460   2.7928460   2.7928460   0.0000000   2.7928460   0.0000000
 AtZNuc=   6.0000000   6.0000000   1.0000000   1.0000000   1.0000000   1.0000000   1.0000000   6.0000000   1.0000000   6.0000000

  Atom        21          22          23          24          25          26          27          28          29          30
 IAtWgt=          12           1          12          16          35           1           1           1          12          12
 AtmWgt=  12.0000000   1.0078250  12.0000000  15.9949146  34.9688527   1.0078250   1.0078250   1.0078250  12.0000000  12.0000000
 NucSpn=           0           1           0           0           3           1           1           1           0           0
 AtZEff=  -3.6000000  -1.0000000  -3.6000000  -5.6000000 -14.2400000  -1.0000000  -1.0000000  -1.0000000  -3.6000000  -3.6000000
 NQMom=    0.0000000   0.0000000   0.0000000   0.0000000  -8.1650000   0.0000000   0.0000000   0.0000000   0.0000000   0.0000000
 NMagM=    0.0000000   2.7928460   0.0000000   0.0000000   0.8218740   2.7928460   2.7928460   2.7928460   0.0000000   0.0000000
 AtZNuc=   6.0000000   1.0000000   6.0000000   8.0000000  17.0000000   1.0000000   1.0000000   1.0000000   6.0000000   6.0000000

  Atom        31          32          33          34          35          36          37          38          39          40
 IAtWgt=          12          12          12          12           1           1           1           1           1           1
 AtmWgt=  12.0000000  12.0000000  12.0000000  12.0000000   1.0078250   1.0078250   1.0078250   1.0078250   1.0078250   1.0078250
 NucSpn=           0           0           0           0           1           1           1           1           1           1
 AtZEff=  -3.6000000  -3.6000000  -3.6000000  -3.6000000  -1.0000000  -1.0000000  -1.0000000  -1.0000000  -1.0000000  -1.0000000
 NQMom=    0.0000000   0.0000000   0.0000000   0.0000000   0.0000000   0.0000000   0.0000000   0.0000000   0.0000000   0.0000000
 NMagM=    0.0000000   0.0000000   0.0000000   0.0000000   2.7928460   2.7928460   2.7928460   2.7928460   2.7928460   2.7928460
 AtZNuc=   6.0000000   6.0000000   6.0000000   6.0000000   1.0000000   1.0000000   1.0000000   1.0000000   1.0000000   1.0000000

  Atom        41          42          43          44          45          46          47          48          49          50
 IAtWgt=           1           1           1           1           1           1           1           1           1           1
 AtmWgt=   1.0078250   1.0078250   1.0078250   1.0078250   1.0078250   1.0078250   1.0078250   1.0078250   1.0078250   1.0078250
 NucSpn=           1           1           1           1           1           1           1           1           1           1
 AtZEff=  -1.0000000  -1.0000000  -1.0000000  -1.0000000  -1.0000000  -1.0000000  -1.0000000  -1.0000000  -1.0000000  -1.0000000
 NQMom=    0.0000000   0.0000000   0.0000000   0.0000000   0.0000000   0.0000000   0.0000000   0.0000000   0.0000000   0.0000000
 NMagM=    2.7928460   2.7928460   2.7928460   2.7928460   2.7928460   2.7928460   2.7928460   2.7928460   2.7928460   2.7928460
 AtZNuc=   1.0000000   1.0000000   1.0000000   1.0000000   1.0000000   1.0000000   1.0000000   1.0000000   1.0000000   1.0000000

  Atom        51          52
 IAtWgt=           1           1
 AtmWgt=   1.0078250   1.0078250
 NucSpn=           1           1
 AtZEff=  -1.0000000  -1.0000000
 NQMom=    0.0000000   0.0000000
 NMagM=    2.7928460   2.7928460
 AtZNuc=   1.0000000   1.0000000
 Leave Link  101 at Wed Jul 11 20:03:08 2018, MaxMem=  2147483648 cpu:         2.2
 (Enter /ihome/crc/build/g09/g09-D.01/TAR/g09/l202.exe)
 Stoichiometry    C21H28ClNO
 Framework group  C1[X(C21H28ClNO)]
 Deg. of freedom   150
 Full point group                 C1      NOp   1
 RotChk:  IX=0 Diff= 8.14D-16
 Largest Abelian subgroup         C1      NOp   1
 Largest concise Abelian subgroup C1      NOp   1
                         Standard orientation:                         
 ---------------------------------------------------------------------
 Center     Atomic      Atomic             Coordinates (Angstroms)
 Number     Number       Type             X           Y           Z
 ---------------------------------------------------------------------
      1          6           0        4.714827    0.169542    0.414039
      2          6           0        4.698454    0.989689   -0.716945
      3          6           0        3.749401   -0.817807    0.569775
      4          6           0        2.761456   -0.987706   -0.411980
      5          6           0        2.745839   -0.167759   -1.543929
      6          6           0        3.716605    0.820101   -1.692172
      7          7           0       -1.778952    1.065457    0.009543
      8          6           0       -2.563068   -0.006993    0.142750
      9          6           0       -2.215178   -1.067582    0.987937
     10          6           0       -1.021531   -1.020989    1.701442
     11          6           0       -0.203896    0.100839    1.527144
     12          6           0       -0.619526    1.133015    0.683426
     13          1           0        5.478576    0.302482    1.174259
     14          1           0        5.452271    1.762744   -0.836184
     15          1           0        1.982825   -0.293807   -2.304277
     16          1           0        3.700893    1.459473   -2.569662
     17          1           0        3.750105   -1.459975    1.445273
     18          6           0       -3.862076   -0.058817   -0.665298
     19          1           0       -2.870570   -1.929855    1.087673
     20          6           0        0.168612    2.430528    0.494283
     21          6           0       -0.640512   -2.137064    2.636874
     22          1           0        0.737506    0.163761    2.065354
     23          6           0        1.768409   -2.061306   -0.166416
     24          8           0        1.767348   -2.811246    0.760602
     25         17           0        0.475559   -2.239001   -1.404283
     26          1           0       -1.353913   -2.197968    3.466937
     27          1           0        0.358834   -1.986972    3.054033
     28          1           0       -0.652677   -3.102138    2.120015
     29          6           0       -0.632513    3.572043    1.141802
     30          6           0        0.325135    2.717813   -1.006030
     31          6           0        1.555381    2.365630    1.138029
     32          6           0       -5.053259   -0.260988    0.285476
     33          6           0       -3.791991   -1.241470   -1.646542
     34          6           0       -4.077976    1.231109   -1.459562
     35          1           0       -3.656928   -2.194720   -1.123422
     36          1           0       -2.959987   -1.119674   -2.350202
     37          1           0       -4.721293   -1.304028   -2.225864
     38          1           0       -4.985680   -1.208933    0.830092
     39          1           0       -5.989360   -0.271830   -0.285674
     40          1           0       -5.112127    0.550390    1.020365
     41          1           0       -4.138809    2.104134   -0.801213
     42          1           0       -5.017019    1.157336   -2.020799
     43          1           0       -3.264348    1.406755   -2.170190
     44          1           0        1.497104    2.249416    2.226700
     45          1           0        2.097444    3.296410    0.934086
     46          1           0        2.149244    1.537375    0.733772
     47          1           0       -0.650728    2.837231   -1.485087
     48          1           0        0.854923    1.900977   -1.509796
     49          1           0        0.901405    3.639735   -1.151443
     50          1           0       -1.627005    3.653378    0.690685
     51          1           0       -0.110512    4.526664    1.002353
     52          1           0       -0.756332    3.405434    2.218793
 ---------------------------------------------------------------------
 Rotational constants (GHZ):      0.3204966      0.1648679      0.1402007
 Leave Link  202 at Wed Jul 11 20:03:08 2018, MaxMem=  2147483648 cpu:         0.0
 (Enter /ihome/crc/build/g09/g09-D.01/TAR/g09/l301.exe)
 Standard basis: 6-311+G(d,p) (5D, 7F)
 Ernie: Thresh=  0.10000D-02 Tol=  0.10000D-05 Strict=F.
 AO basis set in the form of general basis input (Overlap normalization):
      1 0
 S   6 1.00       0.000000000000
      0.4563240000D+04  0.1966650249D-02
      0.6820240000D+03  0.1523060193D-01
      0.1549730000D+03  0.7612690966D-01
      0.4445530000D+02  0.2608010331D+00
      0.1302900000D+02  0.6164620782D+00
      0.1827730000D+01  0.2210060280D+00
 SP   3 1.00       0.000000000000
      0.2096420000D+02  0.1146600807D+00  0.4024869267D-01
      0.4803310000D+01  0.9199996477D+00  0.2375939567D+00
      0.1459330000D+01 -0.3030682134D-02  0.8158538515D+00
 SP   1 1.00       0.000000000000
      0.4834560000D+00  0.1000000000D+01  0.1000000000D+01
 SP   1 1.00       0.000000000000
      0.1455850000D+00  0.1000000000D+01  0.1000000000D+01
 SP   1 1.00       0.000000000000
      0.4380000000D-01  0.1000000000D+01  0.1000000000D+01
 D   1 1.00       0.000000000000
      0.6260000000D+00  0.1000000000D+01
 ****
      2 0
 S   6 1.00       0.000000000000
      0.4563240000D+04  0.1966650249D-02
      0.6820240000D+03  0.1523060193D-01
      0.1549730000D+03  0.7612690966D-01
      0.4445530000D+02  0.2608010331D+00
      0.1302900000D+02  0.6164620782D+00
      0.1827730000D+01  0.2210060280D+00
 SP   3 1.00       0.000000000000
      0.2096420000D+02  0.1146600807D+00  0.4024869267D-01
      0.4803310000D+01  0.9199996477D+00  0.2375939567D+00
      0.1459330000D+01 -0.3030682134D-02  0.8158538515D+00
 SP   1 1.00       0.000000000000
      0.4834560000D+00  0.1000000000D+01  0.1000000000D+01
 SP   1 1.00       0.000000000000
      0.1455850000D+00  0.1000000000D+01  0.1000000000D+01
 SP   1 1.00       0.000000000000
      0.4380000000D-01  0.1000000000D+01  0.1000000000D+01
 D   1 1.00       0.000000000000
      0.6260000000D+00  0.1000000000D+01
 ****
      3 0
 S   6 1.00       0.000000000000
      0.4563240000D+04  0.1966650249D-02
      0.6820240000D+03  0.1523060193D-01
      0.1549730000D+03  0.7612690966D-01
      0.4445530000D+02  0.2608010331D+00
      0.1302900000D+02  0.6164620782D+00
      0.1827730000D+01  0.2210060280D+00
 SP   3 1.00       0.000000000000
      0.2096420000D+02  0.1146600807D+00  0.4024869267D-01
      0.4803310000D+01  0.9199996477D+00  0.2375939567D+00
      0.1459330000D+01 -0.3030682134D-02  0.8158538515D+00
 SP   1 1.00       0.000000000000
      0.4834560000D+00  0.1000000000D+01  0.1000000000D+01
 SP   1 1.00       0.000000000000
      0.1455850000D+00  0.1000000000D+01  0.1000000000D+01
 SP   1 1.00       0.000000000000
      0.4380000000D-01  0.1000000000D+01  0.1000000000D+01
 D   1 1.00       0.000000000000
      0.6260000000D+00  0.1000000000D+01
 ****
      4 0
 S   6 1.00       0.000000000000
      0.4563240000D+04  0.1966650249D-02
      0.6820240000D+03  0.1523060193D-01
      0.1549730000D+03  0.7612690966D-01
      0.4445530000D+02  0.2608010331D+00
      0.1302900000D+02  0.6164620782D+00
      0.1827730000D+01  0.2210060280D+00
 SP   3 1.00       0.000000000000
      0.2096420000D+02  0.1146600807D+00  0.4024869267D-01
      0.4803310000D+01  0.9199996477D+00  0.2375939567D+00
      0.1459330000D+01 -0.3030682134D-02  0.8158538515D+00
 SP   1 1.00       0.000000000000
      0.4834560000D+00  0.1000000000D+01  0.1000000000D+01
 SP   1 1.00       0.000000000000
      0.1455850000D+00  0.1000000000D+01  0.1000000000D+01
 SP   1 1.00       0.000000000000
      0.4380000000D-01  0.1000000000D+01  0.1000000000D+01
 D   1 1.00       0.000000000000
      0.6260000000D+00  0.1000000000D+01
 ****
      5 0
 S   6 1.00       0.000000000000
      0.4563240000D+04  0.1966650249D-02
      0.6820240000D+03  0.1523060193D-01
      0.1549730000D+03  0.7612690966D-01
      0.4445530000D+02  0.2608010331D+00
      0.1302900000D+02  0.6164620782D+00
      0.1827730000D+01  0.2210060280D+00
 SP   3 1.00       0.000000000000
      0.2096420000D+02  0.1146600807D+00  0.4024869267D-01
      0.4803310000D+01  0.9199996477D+00  0.2375939567D+00
      0.1459330000D+01 -0.3030682134D-02  0.8158538515D+00
 SP   1 1.00       0.000000000000
      0.4834560000D+00  0.1000000000D+01  0.1000000000D+01
 SP   1 1.00       0.000000000000
      0.1455850000D+00  0.1000000000D+01  0.1000000000D+01
 SP   1 1.00       0.000000000000
      0.4380000000D-01  0.1000000000D+01  0.1000000000D+01
 D   1 1.00       0.000000000000
      0.6260000000D+00  0.1000000000D+01
 ****
      6 0
 S   6 1.00       0.000000000000
      0.4563240000D+04  0.1966650249D-02
      0.6820240000D+03  0.1523060193D-01
      0.1549730000D+03  0.7612690966D-01
      0.4445530000D+02  0.2608010331D+00
      0.1302900000D+02  0.6164620782D+00
      0.1827730000D+01  0.2210060280D+00
 SP   3 1.00       0.000000000000
      0.2096420000D+02  0.1146600807D+00  0.4024869267D-01
      0.4803310000D+01  0.9199996477D+00  0.2375939567D+00
      0.1459330000D+01 -0.3030682134D-02  0.8158538515D+00
 SP   1 1.00       0.000000000000
      0.4834560000D+00  0.1000000000D+01  0.1000000000D+01
 SP   1 1.00       0.000000000000
      0.1455850000D+00  0.1000000000D+01  0.1000000000D+01
 SP   1 1.00       0.000000000000
      0.4380000000D-01  0.1000000000D+01  0.1000000000D+01
 D   1 1.00       0.000000000000
      0.6260000000D+00  0.1000000000D+01
 ****
      7 0
 S   6 1.00       0.000000000000
      0.6293480000D+04  0.1969788147D-02
      0.9490440000D+03  0.1496128592D-01
      0.2187760000D+03  0.7350053084D-01
      0.6369160000D+02  0.2489367658D+00
      0.1882820000D+02  0.6024594331D+00
      0.2720230000D+01  0.2562017589D+00
 SP   3 1.00       0.000000000000
      0.3063310000D+02  0.1119060795D+00  0.3831191864D-01
      0.7026140000D+01  0.9216666549D+00  0.2374031155D+00
      0.2112050000D+01 -0.2569191826D-02  0.8175923978D+00
 SP   1 1.00       0.000000000000
      0.6840090000D+00  0.1000000000D+01  0.1000000000D+01
 SP   1 1.00       0.000000000000
      0.2008780000D+00  0.1000000000D+01  0.1000000000D+01
 SP   1 1.00       0.000000000000
      0.6390000000D-01  0.1000000000D+01  0.1000000000D+01
 D   1 1.00       0.000000000000
      0.9130000000D+00  0.1000000000D+01
 ****
      8 0
 S   6 1.00       0.000000000000
      0.4563240000D+04  0.1966650249D-02
      0.6820240000D+03  0.1523060193D-01
      0.1549730000D+03  0.7612690966D-01
      0.4445530000D+02  0.2608010331D+00
      0.1302900000D+02  0.6164620782D+00
      0.1827730000D+01  0.2210060280D+00
 SP   3 1.00       0.000000000000
      0.2096420000D+02  0.1146600807D+00  0.4024869267D-01
      0.4803310000D+01  0.9199996477D+00  0.2375939567D+00
      0.1459330000D+01 -0.3030682134D-02  0.8158538515D+00
 SP   1 1.00       0.000000000000
      0.4834560000D+00  0.1000000000D+01  0.1000000000D+01
 SP   1 1.00       0.000000000000
      0.1455850000D+00  0.1000000000D+01  0.1000000000D+01
 SP   1 1.00       0.000000000000
      0.4380000000D-01  0.1000000000D+01  0.1000000000D+01
 D   1 1.00       0.000000000000
      0.6260000000D+00  0.1000000000D+01
 ****
      9 0
 S   6 1.00       0.000000000000
      0.4563240000D+04  0.1966650249D-02
      0.6820240000D+03  0.1523060193D-01
      0.1549730000D+03  0.7612690966D-01
      0.4445530000D+02  0.2608010331D+00
      0.1302900000D+02  0.6164620782D+00
      0.1827730000D+01  0.2210060280D+00
 SP   3 1.00       0.000000000000
      0.2096420000D+02  0.1146600807D+00  0.4024869267D-01
      0.4803310000D+01  0.9199996477D+00  0.2375939567D+00
      0.1459330000D+01 -0.3030682134D-02  0.8158538515D+00
 SP   1 1.00       0.000000000000
      0.4834560000D+00  0.1000000000D+01  0.1000000000D+01
 SP   1 1.00       0.000000000000
      0.1455850000D+00  0.1000000000D+01  0.1000000000D+01
 SP   1 1.00       0.000000000000
      0.4380000000D-01  0.1000000000D+01  0.1000000000D+01
 D   1 1.00       0.000000000000
      0.6260000000D+00  0.1000000000D+01
 ****
     10 0
 S   6 1.00       0.000000000000
      0.4563240000D+04  0.1966650249D-02
      0.6820240000D+03  0.1523060193D-01
      0.1549730000D+03  0.7612690966D-01
      0.4445530000D+02  0.2608010331D+00
      0.1302900000D+02  0.6164620782D+00
      0.1827730000D+01  0.2210060280D+00
 SP   3 1.00       0.000000000000
      0.2096420000D+02  0.1146600807D+00  0.4024869267D-01
      0.4803310000D+01  0.9199996477D+00  0.2375939567D+00
      0.1459330000D+01 -0.3030682134D-02  0.8158538515D+00
 SP   1 1.00       0.000000000000
      0.4834560000D+00  0.1000000000D+01  0.1000000000D+01
 SP   1 1.00       0.000000000000
      0.1455850000D+00  0.1000000000D+01  0.1000000000D+01
 SP   1 1.00       0.000000000000
      0.4380000000D-01  0.1000000000D+01  0.1000000000D+01
 D   1 1.00       0.000000000000
      0.6260000000D+00  0.1000000000D+01
 ****
     11 0
 S   6 1.00       0.000000000000
      0.4563240000D+04  0.1966650249D-02
      0.6820240000D+03  0.1523060193D-01
      0.1549730000D+03  0.7612690966D-01
      0.4445530000D+02  0.2608010331D+00
      0.1302900000D+02  0.6164620782D+00
      0.1827730000D+01  0.2210060280D+00
 SP   3 1.00       0.000000000000
      0.2096420000D+02  0.1146600807D+00  0.4024869267D-01
      0.4803310000D+01  0.9199996477D+00  0.2375939567D+00
      0.1459330000D+01 -0.3030682134D-02  0.8158538515D+00
 SP   1 1.00       0.000000000000
      0.4834560000D+00  0.1000000000D+01  0.1000000000D+01
 SP   1 1.00       0.000000000000
      0.1455850000D+00  0.1000000000D+01  0.1000000000D+01
 SP   1 1.00       0.000000000000
      0.4380000000D-01  0.1000000000D+01  0.1000000000D+01
 D   1 1.00       0.000000000000
      0.6260000000D+00  0.1000000000D+01
 ****
     12 0
 S   6 1.00       0.000000000000
      0.4563240000D+04  0.1966650249D-02
      0.6820240000D+03  0.1523060193D-01
      0.1549730000D+03  0.7612690966D-01
      0.4445530000D+02  0.2608010331D+00
      0.1302900000D+02  0.6164620782D+00
      0.1827730000D+01  0.2210060280D+00
 SP   3 1.00       0.000000000000
      0.2096420000D+02  0.1146600807D+00  0.4024869267D-01
      0.4803310000D+01  0.9199996477D+00  0.2375939567D+00
      0.1459330000D+01 -0.3030682134D-02  0.8158538515D+00
 SP   1 1.00       0.000000000000
      0.4834560000D+00  0.1000000000D+01  0.1000000000D+01
 SP   1 1.00       0.000000000000
      0.1455850000D+00  0.1000000000D+01  0.1000000000D+01
 SP   1 1.00       0.000000000000
      0.4380000000D-01  0.1000000000D+01  0.1000000000D+01
 D   1 1.00       0.000000000000
      0.6260000000D+00  0.1000000000D+01
 ****
     13 0
 S   3 1.00       0.000000000000
      0.3386500000D+02  0.2549381454D-01
      0.5094790000D+01  0.1903731086D+00
      0.1158790000D+01  0.8521614860D+00
 S   1 1.00       0.000000000000
      0.3258400000D+00  0.1000000000D+01
 S   1 1.00       0.000000000000
      0.1027410000D+00  0.1000000000D+01
 P   1 1.00       0.000000000000
      0.7500000000D+00  0.1000000000D+01
 ****
     14 0
 S   3 1.00       0.000000000000
      0.3386500000D+02  0.2549381454D-01
      0.5094790000D+01  0.1903731086D+00
      0.1158790000D+01  0.8521614860D+00
 S   1 1.00       0.000000000000
      0.3258400000D+00  0.1000000000D+01
 S   1 1.00       0.000000000000
      0.1027410000D+00  0.1000000000D+01
 P   1 1.00       0.000000000000
      0.7500000000D+00  0.1000000000D+01
 ****
     15 0
 S   3 1.00       0.000000000000
      0.3386500000D+02  0.2549381454D-01
      0.5094790000D+01  0.1903731086D+00
      0.1158790000D+01  0.8521614860D+00
 S   1 1.00       0.000000000000
      0.3258400000D+00  0.1000000000D+01
 S   1 1.00       0.000000000000
      0.1027410000D+00  0.1000000000D+01
 P   1 1.00       0.000000000000
      0.7500000000D+00  0.1000000000D+01
 ****
     16 0
 S   3 1.00       0.000000000000
      0.3386500000D+02  0.2549381454D-01
      0.5094790000D+01  0.1903731086D+00
      0.1158790000D+01  0.8521614860D+00
 S   1 1.00       0.000000000000
      0.3258400000D+00  0.1000000000D+01
 S   1 1.00       0.000000000000
      0.1027410000D+00  0.1000000000D+01
 P   1 1.00       0.000000000000
      0.7500000000D+00  0.1000000000D+01
 ****
     17 0
 S   3 1.00       0.000000000000
      0.3386500000D+02  0.2549381454D-01
      0.5094790000D+01  0.1903731086D+00
      0.1158790000D+01  0.8521614860D+00
 S   1 1.00       0.000000000000
      0.3258400000D+00  0.1000000000D+01
 S   1 1.00       0.000000000000
      0.1027410000D+00  0.1000000000D+01
 P   1 1.00       0.000000000000
      0.7500000000D+00  0.1000000000D+01
 ****
     18 0
 S   6 1.00       0.000000000000
      0.4563240000D+04  0.1966650249D-02
      0.6820240000D+03  0.1523060193D-01
      0.1549730000D+03  0.7612690966D-01
      0.4445530000D+02  0.2608010331D+00
      0.1302900000D+02  0.6164620782D+00
      0.1827730000D+01  0.2210060280D+00
 SP   3 1.00       0.000000000000
      0.2096420000D+02  0.1146600807D+00  0.4024869267D-01
      0.4803310000D+01  0.9199996477D+00  0.2375939567D+00
      0.1459330000D+01 -0.3030682134D-02  0.8158538515D+00
 SP   1 1.00       0.000000000000
      0.4834560000D+00  0.1000000000D+01  0.1000000000D+01
 SP   1 1.00       0.000000000000
      0.1455850000D+00  0.1000000000D+01  0.1000000000D+01
 SP   1 1.00       0.000000000000
      0.4380000000D-01  0.1000000000D+01  0.1000000000D+01
 D   1 1.00       0.000000000000
      0.6260000000D+00  0.1000000000D+01
 ****
     19 0
 S   3 1.00       0.000000000000
      0.3386500000D+02  0.2549381454D-01
      0.5094790000D+01  0.1903731086D+00
      0.1158790000D+01  0.8521614860D+00
 S   1 1.00       0.000000000000
      0.3258400000D+00  0.1000000000D+01
 S   1 1.00       0.000000000000
      0.1027410000D+00  0.1000000000D+01
 P   1 1.00       0.000000000000
      0.7500000000D+00  0.1000000000D+01
 ****
     20 0
 S   6 1.00       0.000000000000
      0.4563240000D+04  0.1966650249D-02
      0.6820240000D+03  0.1523060193D-01
      0.1549730000D+03  0.7612690966D-01
      0.4445530000D+02  0.2608010331D+00
      0.1302900000D+02  0.6164620782D+00
      0.1827730000D+01  0.2210060280D+00
 SP   3 1.00       0.000000000000
      0.2096420000D+02  0.1146600807D+00  0.4024869267D-01
      0.4803310000D+01  0.9199996477D+00  0.2375939567D+00
      0.1459330000D+01 -0.3030682134D-02  0.8158538515D+00
 SP   1 1.00       0.000000000000
      0.4834560000D+00  0.1000000000D+01  0.1000000000D+01
 SP   1 1.00       0.000000000000
      0.1455850000D+00  0.1000000000D+01  0.1000000000D+01
 SP   1 1.00       0.000000000000
      0.4380000000D-01  0.1000000000D+01  0.1000000000D+01
 D   1 1.00       0.000000000000
      0.6260000000D+00  0.1000000000D+01
 ****
     21 0
 S   6 1.00       0.000000000000
      0.4563240000D+04  0.1966650249D-02
      0.6820240000D+03  0.1523060193D-01
      0.1549730000D+03  0.7612690966D-01
      0.4445530000D+02  0.2608010331D+00
      0.1302900000D+02  0.6164620782D+00
      0.1827730000D+01  0.2210060280D+00
 SP   3 1.00       0.000000000000
      0.2096420000D+02  0.1146600807D+00  0.4024869267D-01
      0.4803310000D+01  0.9199996477D+00  0.2375939567D+00
      0.1459330000D+01 -0.3030682134D-02  0.8158538515D+00
 SP   1 1.00       0.000000000000
      0.4834560000D+00  0.1000000000D+01  0.1000000000D+01
 SP   1 1.00       0.000000000000
      0.1455850000D+00  0.1000000000D+01  0.1000000000D+01
 SP   1 1.00       0.000000000000
      0.4380000000D-01  0.1000000000D+01  0.1000000000D+01
 D   1 1.00       0.000000000000
      0.6260000000D+00  0.1000000000D+01
 ****
     22 0
 S   3 1.00       0.000000000000
      0.3386500000D+02  0.2549381454D-01
      0.5094790000D+01  0.1903731086D+00
      0.1158790000D+01  0.8521614860D+00
 S   1 1.00       0.000000000000
      0.3258400000D+00  0.1000000000D+01
 S   1 1.00       0.000000000000
      0.1027410000D+00  0.1000000000D+01
 P   1 1.00       0.000000000000
      0.7500000000D+00  0.1000000000D+01
 ****
     23 0
 S   6 1.00       0.000000000000
      0.4563240000D+04  0.1966650249D-02
      0.6820240000D+03  0.1523060193D-01
      0.1549730000D+03  0.7612690966D-01
      0.4445530000D+02  0.2608010331D+00
      0.1302900000D+02  0.6164620782D+00
      0.1827730000D+01  0.2210060280D+00
 SP   3 1.00       0.000000000000
      0.2096420000D+02  0.1146600807D+00  0.4024869267D-01
      0.4803310000D+01  0.9199996477D+00  0.2375939567D+00
      0.1459330000D+01 -0.3030682134D-02  0.8158538515D+00
 SP   1 1.00       0.000000000000
      0.4834560000D+00  0.1000000000D+01  0.1000000000D+01
 SP   1 1.00       0.000000000000
      0.1455850000D+00  0.1000000000D+01  0.1000000000D+01
 SP   1 1.00       0.000000000000
      0.4380000000D-01  0.1000000000D+01  0.1000000000D+01
 D   1 1.00       0.000000000000
      0.6260000000D+00  0.1000000000D+01
 ****
     24 0
 S   6 1.00       0.000000000000
      0.8588500000D+04  0.1895150083D-02
      0.1297230000D+04  0.1438590063D-01
      0.2992960000D+03  0.7073200310D-01
      0.8737710000D+02  0.2400010105D+00
      0.2567890000D+02  0.5947970261D+00
      0.3740040000D+01  0.2808020123D+00
 SP   3 1.00       0.000000000000
      0.4211750000D+02  0.1138890124D+00  0.3651139738D-01
      0.9628370000D+01  0.9208111006D+00  0.2371529830D+00
      0.2853320000D+01 -0.3274470358D-02  0.8197019412D+00
 SP   1 1.00       0.000000000000
      0.9056610000D+00  0.1000000000D+01  0.1000000000D+01
 SP   1 1.00       0.000000000000
      0.2556110000D+00  0.1000000000D+01  0.1000000000D+01
 SP   1 1.00       0.000000000000
      0.8450000000D-01  0.1000000000D+01  0.1000000000D+01
 D   1 1.00       0.000000000000
      0.1292000000D+01  0.1000000000D+01
 ****
     25 0
 S   6 1.00       0.000000000000
      0.1058190000D+06  0.7380002465D-03
      0.1587200000D+05  0.5718001910D-02
      0.3619650000D+04  0.2949500985D-01
      0.1030800000D+04  0.1172860392D+00
      0.3399080000D+03  0.3629491212D+00
      0.1245380000D+03  0.5841491951D+00
 S   3 1.00       0.000000000000
      0.1245380000D+03  0.1341769734D+00
      0.4951350000D+02  0.6242498762D+00
      0.2080560000D+02  0.2917559421D+00
 S   1 1.00       0.000000000000
      0.6583460000D+01  0.1000000000D+01
 S   1 1.00       0.000000000000
      0.2564680000D+01  0.1000000000D+01
 S   1 1.00       0.000000000000
      0.5597630000D+00  0.1000000000D+01
 S   1 1.00       0.000000000000
      0.1832730000D+00  0.1000000000D+01
 SP   1 1.00       0.000000000000
      0.4830000000D-01  0.1000000000D+01  0.1000000000D+01
 P   5 1.00       0.000000000000
      0.5897760000D+03  0.3665569355D-02
      0.1398490000D+03  0.2836791942D-01
      0.4514130000D+02  0.1247566028D+00
      0.1687330000D+02  0.3396546305D+00
      0.2771520000D+01  0.7475859630D+00
 P   2 1.00       0.000000000000
      0.6741100000D+01 -0.1572243813D+01
      0.2771520000D+01  0.9923888817D+00
 P   1 1.00       0.000000000000
      0.1023870000D+01  0.1000000000D+01
 P   1 1.00       0.000000000000
      0.3813680000D+00  0.1000000000D+01
 P   1 1.00       0.000000000000
      0.1094370000D+00  0.1000000000D+01
 D   1 1.00       0.000000000000
      0.7500000000D+00  0.1000000000D+01
 ****
     26 0
 S   3 1.00       0.000000000000
      0.3386500000D+02  0.2549381454D-01
      0.5094790000D+01  0.1903731086D+00
      0.1158790000D+01  0.8521614860D+00
 S   1 1.00       0.000000000000
      0.3258400000D+00  0.1000000000D+01
 S   1 1.00       0.000000000000
      0.1027410000D+00  0.1000000000D+01
 P   1 1.00       0.000000000000
      0.7500000000D+00  0.1000000000D+01
 ****
     27 0
 S   3 1.00       0.000000000000
      0.3386500000D+02  0.2549381454D-01
      0.5094790000D+01  0.1903731086D+00
      0.1158790000D+01  0.8521614860D+00
 S   1 1.00       0.000000000000
      0.3258400000D+00  0.1000000000D+01
 S   1 1.00       0.000000000000
      0.1027410000D+00  0.1000000000D+01
 P   1 1.00       0.000000000000
      0.7500000000D+00  0.1000000000D+01
 ****
     28 0
 S   3 1.00       0.000000000000
      0.3386500000D+02  0.2549381454D-01
      0.5094790000D+01  0.1903731086D+00
      0.1158790000D+01  0.8521614860D+00
 S   1 1.00       0.000000000000
      0.3258400000D+00  0.1000000000D+01
 S   1 1.00       0.000000000000
      0.1027410000D+00  0.1000000000D+01
 P   1 1.00       0.000000000000
      0.7500000000D+00  0.1000000000D+01
 ****
     29 0
 S   6 1.00       0.000000000000
      0.4563240000D+04  0.1966650249D-02
      0.6820240000D+03  0.1523060193D-01
      0.1549730000D+03  0.7612690966D-01
      0.4445530000D+02  0.2608010331D+00
      0.1302900000D+02  0.6164620782D+00
      0.1827730000D+01  0.2210060280D+00
 SP   3 1.00       0.000000000000
      0.2096420000D+02  0.1146600807D+00  0.4024869267D-01
      0.4803310000D+01  0.9199996477D+00  0.2375939567D+00
      0.1459330000D+01 -0.3030682134D-02  0.8158538515D+00
 SP   1 1.00       0.000000000000
      0.4834560000D+00  0.1000000000D+01  0.1000000000D+01
 SP   1 1.00       0.000000000000
      0.1455850000D+00  0.1000000000D+01  0.1000000000D+01
 SP   1 1.00       0.000000000000
      0.4380000000D-01  0.1000000000D+01  0.1000000000D+01
 D   1 1.00       0.000000000000
      0.6260000000D+00  0.1000000000D+01
 ****
     30 0
 S   6 1.00       0.000000000000
      0.4563240000D+04  0.1966650249D-02
      0.6820240000D+03  0.1523060193D-01
      0.1549730000D+03  0.7612690966D-01
      0.4445530000D+02  0.2608010331D+00
      0.1302900000D+02  0.6164620782D+00
      0.1827730000D+01  0.2210060280D+00
 SP   3 1.00       0.000000000000
      0.2096420000D+02  0.1146600807D+00  0.4024869267D-01
      0.4803310000D+01  0.9199996477D+00  0.2375939567D+00
      0.1459330000D+01 -0.3030682134D-02  0.8158538515D+00
 SP   1 1.00       0.000000000000
      0.4834560000D+00  0.1000000000D+01  0.1000000000D+01
 SP   1 1.00       0.000000000000
      0.1455850000D+00  0.1000000000D+01  0.1000000000D+01
 SP   1 1.00       0.000000000000
      0.4380000000D-01  0.1000000000D+01  0.1000000000D+01
 D   1 1.00       0.000000000000
      0.6260000000D+00  0.1000000000D+01
 ****
     31 0
 S   6 1.00       0.000000000000
      0.4563240000D+04  0.1966650249D-02
      0.6820240000D+03  0.1523060193D-01
      0.1549730000D+03  0.7612690966D-01
      0.4445530000D+02  0.2608010331D+00
      0.1302900000D+02  0.6164620782D+00
      0.1827730000D+01  0.2210060280D+00
 SP   3 1.00       0.000000000000
      0.2096420000D+02  0.1146600807D+00  0.4024869267D-01
      0.4803310000D+01  0.9199996477D+00  0.2375939567D+00
      0.1459330000D+01 -0.3030682134D-02  0.8158538515D+00
 SP   1 1.00       0.000000000000
      0.4834560000D+00  0.1000000000D+01  0.1000000000D+01
 SP   1 1.00       0.000000000000
      0.1455850000D+00  0.1000000000D+01  0.1000000000D+01
 SP   1 1.00       0.000000000000
      0.4380000000D-01  0.1000000000D+01  0.1000000000D+01
 D   1 1.00       0.000000000000
      0.6260000000D+00  0.1000000000D+01
 ****
     32 0
 S   6 1.00       0.000000000000
      0.4563240000D+04  0.1966650249D-02
      0.6820240000D+03  0.1523060193D-01
      0.1549730000D+03  0.7612690966D-01
      0.4445530000D+02  0.2608010331D+00
      0.1302900000D+02  0.6164620782D+00
      0.1827730000D+01  0.2210060280D+00
 SP   3 1.00       0.000000000000
      0.2096420000D+02  0.1146600807D+00  0.4024869267D-01
      0.4803310000D+01  0.9199996477D+00  0.2375939567D+00
      0.1459330000D+01 -0.3030682134D-02  0.8158538515D+00
 SP   1 1.00       0.000000000000
      0.4834560000D+00  0.1000000000D+01  0.1000000000D+01
 SP   1 1.00       0.000000000000
      0.1455850000D+00  0.1000000000D+01  0.1000000000D+01
 SP   1 1.00       0.000000000000
      0.4380000000D-01  0.1000000000D+01  0.1000000000D+01
 D   1 1.00       0.000000000000
      0.6260000000D+00  0.1000000000D+01
 ****
     33 0
 S   6 1.00       0.000000000000
      0.4563240000D+04  0.1966650249D-02
      0.6820240000D+03  0.1523060193D-01
      0.1549730000D+03  0.7612690966D-01
      0.4445530000D+02  0.2608010331D+00
      0.1302900000D+02  0.6164620782D+00
      0.1827730000D+01  0.2210060280D+00
 SP   3 1.00       0.000000000000
      0.2096420000D+02  0.1146600807D+00  0.4024869267D-01
      0.4803310000D+01  0.9199996477D+00  0.2375939567D+00
      0.1459330000D+01 -0.3030682134D-02  0.8158538515D+00
 SP   1 1.00       0.000000000000
      0.4834560000D+00  0.1000000000D+01  0.1000000000D+01
 SP   1 1.00       0.000000000000
      0.1455850000D+00  0.1000000000D+01  0.1000000000D+01
 SP   1 1.00       0.000000000000
      0.4380000000D-01  0.1000000000D+01  0.1000000000D+01
 D   1 1.00       0.000000000000
      0.6260000000D+00  0.1000000000D+01
 ****
     34 0
 S   6 1.00       0.000000000000
      0.4563240000D+04  0.1966650249D-02
      0.6820240000D+03  0.1523060193D-01
      0.1549730000D+03  0.7612690966D-01
      0.4445530000D+02  0.2608010331D+00
      0.1302900000D+02  0.6164620782D+00
      0.1827730000D+01  0.2210060280D+00
 SP   3 1.00       0.000000000000
      0.2096420000D+02  0.1146600807D+00  0.4024869267D-01
      0.4803310000D+01  0.9199996477D+00  0.2375939567D+00
      0.1459330000D+01 -0.3030682134D-02  0.8158538515D+00
 SP   1 1.00       0.000000000000
      0.4834560000D+00  0.1000000000D+01  0.1000000000D+01
 SP   1 1.00       0.000000000000
      0.1455850000D+00  0.1000000000D+01  0.1000000000D+01
 SP   1 1.00       0.000000000000
      0.4380000000D-01  0.1000000000D+01  0.1000000000D+01
 D   1 1.00       0.000000000000
      0.6260000000D+00  0.1000000000D+01
 ****
     35 0
 S   3 1.00       0.000000000000
      0.3386500000D+02  0.2549381454D-01
      0.5094790000D+01  0.1903731086D+00
      0.1158790000D+01  0.8521614860D+00
 S   1 1.00       0.000000000000
      0.3258400000D+00  0.1000000000D+01
 S   1 1.00       0.000000000000
      0.1027410000D+00  0.1000000000D+01
 P   1 1.00       0.000000000000
      0.7500000000D+00  0.1000000000D+01
 ****
     36 0
 S   3 1.00       0.000000000000
      0.3386500000D+02  0.2549381454D-01
      0.5094790000D+01  0.1903731086D+00
      0.1158790000D+01  0.8521614860D+00
 S   1 1.00       0.000000000000
      0.3258400000D+00  0.1000000000D+01
 S   1 1.00       0.000000000000
      0.1027410000D+00  0.1000000000D+01
 P   1 1.00       0.000000000000
      0.7500000000D+00  0.1000000000D+01
 ****
     37 0
 S   3 1.00       0.000000000000
      0.3386500000D+02  0.2549381454D-01
      0.5094790000D+01  0.1903731086D+00
      0.1158790000D+01  0.8521614860D+00
 S   1 1.00       0.000000000000
      0.3258400000D+00  0.1000000000D+01
 S   1 1.00       0.000000000000
      0.1027410000D+00  0.1000000000D+01
 P   1 1.00       0.000000000000
      0.7500000000D+00  0.1000000000D+01
 ****
     38 0
 S   3 1.00       0.000000000000
      0.3386500000D+02  0.2549381454D-01
      0.5094790000D+01  0.1903731086D+00
      0.1158790000D+01  0.8521614860D+00
 S   1 1.00       0.000000000000
      0.3258400000D+00  0.1000000000D+01
 S   1 1.00       0.000000000000
      0.1027410000D+00  0.1000000000D+01
 P   1 1.00       0.000000000000
      0.7500000000D+00  0.1000000000D+01
 ****
     39 0
 S   3 1.00       0.000000000000
      0.3386500000D+02  0.2549381454D-01
      0.5094790000D+01  0.1903731086D+00
      0.1158790000D+01  0.8521614860D+00
 S   1 1.00       0.000000000000
      0.3258400000D+00  0.1000000000D+01
 S   1 1.00       0.000000000000
      0.1027410000D+00  0.1000000000D+01
 P   1 1.00       0.000000000000
      0.7500000000D+00  0.1000000000D+01
 ****
     40 0
 S   3 1.00       0.000000000000
      0.3386500000D+02  0.2549381454D-01
      0.5094790000D+01  0.1903731086D+00
      0.1158790000D+01  0.8521614860D+00
 S   1 1.00       0.000000000000
      0.3258400000D+00  0.1000000000D+01
 S   1 1.00       0.000000000000
      0.1027410000D+00  0.1000000000D+01
 P   1 1.00       0.000000000000
      0.7500000000D+00  0.1000000000D+01
 ****
     41 0
 S   3 1.00       0.000000000000
      0.3386500000D+02  0.2549381454D-01
      0.5094790000D+01  0.1903731086D+00
      0.1158790000D+01  0.8521614860D+00
 S   1 1.00       0.000000000000
      0.3258400000D+00  0.1000000000D+01
 S   1 1.00       0.000000000000
      0.1027410000D+00  0.1000000000D+01
 P   1 1.00       0.000000000000
      0.7500000000D+00  0.1000000000D+01
 ****
     42 0
 S   3 1.00       0.000000000000
      0.3386500000D+02  0.2549381454D-01
      0.5094790000D+01  0.1903731086D+00
      0.1158790000D+01  0.8521614860D+00
 S   1 1.00       0.000000000000
      0.3258400000D+00  0.1000000000D+01
 S   1 1.00       0.000000000000
      0.1027410000D+00  0.1000000000D+01
 P   1 1.00       0.000000000000
      0.7500000000D+00  0.1000000000D+01
 ****
     43 0
 S   3 1.00       0.000000000000
      0.3386500000D+02  0.2549381454D-01
      0.5094790000D+01  0.1903731086D+00
      0.1158790000D+01  0.8521614860D+00
 S   1 1.00       0.000000000000
      0.3258400000D+00  0.1000000000D+01
 S   1 1.00       0.000000000000
      0.1027410000D+00  0.1000000000D+01
 P   1 1.00       0.000000000000
      0.7500000000D+00  0.1000000000D+01
 ****
     44 0
 S   3 1.00       0.000000000000
      0.3386500000D+02  0.2549381454D-01
      0.5094790000D+01  0.1903731086D+00
      0.1158790000D+01  0.8521614860D+00
 S   1 1.00       0.000000000000
      0.3258400000D+00  0.1000000000D+01
 S   1 1.00       0.000000000000
      0.1027410000D+00  0.1000000000D+01
 P   1 1.00       0.000000000000
      0.7500000000D+00  0.1000000000D+01
 ****
     45 0
 S   3 1.00       0.000000000000
      0.3386500000D+02  0.2549381454D-01
      0.5094790000D+01  0.1903731086D+00
      0.1158790000D+01  0.8521614860D+00
 S   1 1.00       0.000000000000
      0.3258400000D+00  0.1000000000D+01
 S   1 1.00       0.000000000000
      0.1027410000D+00  0.1000000000D+01
 P   1 1.00       0.000000000000
      0.7500000000D+00  0.1000000000D+01
 ****
     46 0
 S   3 1.00       0.000000000000
      0.3386500000D+02  0.2549381454D-01
      0.5094790000D+01  0.1903731086D+00
      0.1158790000D+01  0.8521614860D+00
 S   1 1.00       0.000000000000
      0.3258400000D+00  0.1000000000D+01
 S   1 1.00       0.000000000000
      0.1027410000D+00  0.1000000000D+01
 P   1 1.00       0.000000000000
      0.7500000000D+00  0.1000000000D+01
 ****
     47 0
 S   3 1.00       0.000000000000
      0.3386500000D+02  0.2549381454D-01
      0.5094790000D+01  0.1903731086D+00
      0.1158790000D+01  0.8521614860D+00
 S   1 1.00       0.000000000000
      0.3258400000D+00  0.1000000000D+01
 S   1 1.00       0.000000000000
      0.1027410000D+00  0.1000000000D+01
 P   1 1.00       0.000000000000
      0.7500000000D+00  0.1000000000D+01
 ****
     48 0
 S   3 1.00       0.000000000000
      0.3386500000D+02  0.2549381454D-01
      0.5094790000D+01  0.1903731086D+00
      0.1158790000D+01  0.8521614860D+00
 S   1 1.00       0.000000000000
      0.3258400000D+00  0.1000000000D+01
 S   1 1.00       0.000000000000
      0.1027410000D+00  0.1000000000D+01
 P   1 1.00       0.000000000000
      0.7500000000D+00  0.1000000000D+01
 ****
     49 0
 S   3 1.00       0.000000000000
      0.3386500000D+02  0.2549381454D-01
      0.5094790000D+01  0.1903731086D+00
      0.1158790000D+01  0.8521614860D+00
 S   1 1.00       0.000000000000
      0.3258400000D+00  0.1000000000D+01
 S   1 1.00       0.000000000000
      0.1027410000D+00  0.1000000000D+01
 P   1 1.00       0.000000000000
      0.7500000000D+00  0.1000000000D+01
 ****
     50 0
 S   3 1.00       0.000000000000
      0.3386500000D+02  0.2549381454D-01
      0.5094790000D+01  0.1903731086D+00
      0.1158790000D+01  0.8521614860D+00
 S   1 1.00       0.000000000000
      0.3258400000D+00  0.1000000000D+01
 S   1 1.00       0.000000000000
      0.1027410000D+00  0.1000000000D+01
 P   1 1.00       0.000000000000
      0.7500000000D+00  0.1000000000D+01
 ****
     51 0
 S   3 1.00       0.000000000000
      0.3386500000D+02  0.2549381454D-01
      0.5094790000D+01  0.1903731086D+00
      0.1158790000D+01  0.8521614860D+00
 S   1 1.00       0.000000000000
      0.3258400000D+00  0.1000000000D+01
 S   1 1.00       0.000000000000
      0.1027410000D+00  0.1000000000D+01
 P   1 1.00       0.000000000000
      0.7500000000D+00  0.1000000000D+01
 ****
     52 0
 S   3 1.00       0.000000000000
      0.3386500000D+02  0.2549381454D-01
      0.5094790000D+01  0.1903731086D+00
      0.1158790000D+01  0.8521614860D+00
 S   1 1.00       0.000000000000
      0.3258400000D+00  0.1000000000D+01
 S   1 1.00       0.000000000000
      0.1027410000D+00  0.1000000000D+01
 P   1 1.00       0.000000000000
      0.7500000000D+00  0.1000000000D+01
 ****

 There are   728 symmetry adapted cartesian basis functions of A   symmetry.
 There are   704 symmetry adapted basis functions of A   symmetry.
   704 basis functions,  1105 primitive gaussians,   728 cartesian basis functions
    93 alpha electrons       93 beta electrons
       nuclear repulsion energy      2322.3053625907 Hartrees.
 IExCor= 4336 DFT=T Ex+Corr=M062X ExCW=0 ScaHFX=  0.540000
 ScaDFX=  1.000000  1.000000  1.000000  1.000000 ScalE2=  1.000000  1.000000
 IRadAn=      0 IRanWt=     -1 IRanGd=            0 ICorTp=0 IEmpDi=  4
 NAtoms=   52 NActive=   52 NUniq=   52 SFac= 1.00D+00 NAtFMM=   60 NAOKFM=F Big=F
 Integral buffers will be    131072 words long.
 Raffenetti 2 integral format.
 Two-electron integral symmetry is turned on.
 ------------------------------------------------------------------------------
 Polarizable Continuum Model (PCM)
 =================================
 Model                : PCM (using non-symmetric T matrix).
 Atomic radii         : SMD-Coulomb.
 Polarization charges : Total charges.
 Charge compensation  : None.
 Solution method      : On-the-fly selection.
 Cavity type          : VdW (van der Waals Surface) (Alpha=1.000).
 Cavity algorithm     : GePol (No added spheres)
                        Default sphere list used, NSphG=   52.
                        Lebedev-Laikov grids with approx.  5.0 points / Ang**2.
                        Smoothing algorithm: Karplus/York (Gamma=1.0000).
                        Polarization charges: spherical gaussians, with
                                              point-specific exponents (IZeta= 3).
                        Self-potential: point-specific (ISelfS= 7).
                        Self-field    : sphere-specific E.n sum rule (ISelfD= 2).
 Solvent              : Chloroform, Eps=   4.711300 Eps(inf)=   2.090627
 ------------------------------------------------------------------------------
 GePol: Number of generator spheres                  =      52
 GePol: Total number of spheres                      =      52
 GePol: Number of exposed spheres                    =      52 (100.00%)
 GePol: Number of points                             =    3669
 GePol: Average weight of points                     =       0.11
 GePol: Minimum weight of points                     =   0.76D-10
 GePol: Maximum weight of points                     =    0.18790
 GePol: Number of points with low weight             =     227
 GePol: Fraction of low-weight points (<1% of avg)   =       6.19%
 GePol: Cavity surface area                          =    417.527 Ang**2
 GePol: Cavity volume                                =    405.804 Ang**3
 ------------------------------------------------------------------------------
 Atomic radii for non-electrostatic terms: SMD-CDS.
 ------------------------------------------------------------------------------
 PCM non-electrostatic energy =        -0.0117851894 Hartrees.
 Nuclear repulsion after PCM non-electrostatic terms =     2322.2935774012 Hartrees.
 Leave Link  301 at Wed Jul 11 20:03:08 2018, MaxMem=  2147483648 cpu:         0.5
 (Enter /ihome/crc/build/g09/g09-D.01/TAR/g09/l302.exe)
 NPDir=0 NMtPBC=     1 NCelOv=     1 NCel=       1 NClECP=     1 NCelD=      1
         NCelK=      1 NCelE2=     1 NClLst=     1 CellRange=     0.0.
 One-electron integrals computed using PRISM.
 NBasis=   704 RedAO= T EigKep=  1.49D-06  NBF=   704
 NBsUse=   701 1.00D-06 EigRej=  8.62D-07 NBFU=   701
 Precomputing XC quadrature grid using
 IXCGrd= 4 IRadAn=           0 IRanWt=          -1 IRanGd=           0 AccXCQ= 0.00D+00.
 Generated NRdTot=       0 NPtTot=           0 NUsed=           0 NTot=          32
 NSgBfM=   721   721   721   721   721 MxSgAt=    52 MxSgA2=    52.
 Leave Link  302 at Wed Jul 11 20:03:09 2018, MaxMem=  2147483648 cpu:         8.3
 (Enter /ihome/crc/build/g09/g09-D.01/TAR/g09/l303.exe)
 DipDrv:  MaxL=1.
 Leave Link  303 at Wed Jul 11 20:03:09 2018, MaxMem=  2147483648 cpu:         0.7
 (Enter /ihome/crc/build/g09/g09-D.01/TAR/g09/l401.exe)
 ExpMin= 4.38D-02 ExpMax= 1.06D+05 ExpMxC= 3.62D+03 IAcc=2 IRadAn=         4 AccDes= 0.00D+00
 Harris functional with IExCor= 1009 and IRadAn=       4 diagonalized for initial guess.
 HarFok:  IExCor= 1009 AccDes= 0.00D+00 IRadAn=         4 IDoV= 1 UseB2=F ITyADJ=14
 ICtDFT=  3500011 ScaDFX=  1.000000  1.000000  1.000000  1.000000
 FoFCou: FMM=F IPFlag=           0 FMFlag=      100000 FMFlg1=           0
         NFxFlg=           0 DoJE=T BraDBF=F KetDBF=T FulRan=T
         wScrn=  0.000000 ICntrl=     500 IOpCl=  0 I1Cent=   200000004 NGrid=           0
         NMat0=    1 NMatS0=      1 NMatT0=    0 NMatD0=    1 NMtDS0=    0 NMtDT0=    0
 Petite list used in FoFCou.
 Harris En= -1406.58184387144    
 JPrj=0 DoOrth=F DoCkMO=F.
 Leave Link  401 at Wed Jul 11 20:03:13 2018, MaxMem=  2147483648 cpu:        31.8
 (Enter /ihome/crc/build/g09/g09-D.01/TAR/g09/l502.exe)
 Closed shell SCF:
 Using DIIS extrapolation, IDIIS=  1040.
 Integral symmetry usage will be decided dynamically.
 IVT=     1619765 IEndB=     1619765 NGot=  2147483648 MDV=  2146411236
 LenX=  2146411236 LenY=  2145880524
 Requested convergence on RMS density matrix=1.00D-08 within 128 cycles.
 Requested convergence on MAX density matrix=1.00D-06.
 Requested convergence on             energy=1.00D-06.
 No special actions if energy rises.
 Fock matrices will be formed incrementally for  20 cycles.

 Cycle   1  Pass 1  IDiag  1:
 FoFJK:  IHMeth= 1 ICntrl=       0 DoSepK=F KAlg= 0 I1Cent=   0 FoldK=F
 IRaf= 780000000 NMat=   1 IRICut=       1 DoRegI=T DoRafI=F ISym2E= 0.
 FoFCou: FMM=F IPFlag=           0 FMFlag=      100000 FMFlg1=           0
         NFxFlg=           0 DoJE=F BraDBF=F KetDBF=F FulRan=T
         wScrn=  0.000000 ICntrl=       0 IOpCl=  0 I1Cent=           0 NGrid=           0
         NMat0=    1 NMatS0=      1 NMatT0=    0 NMatD0=    1 NMtDS0=    0 NMtDT0=    0
 Symmetry not used in FoFCou.
 Inv3:  Mode=1 IEnd=    40384683.
 Iteration    1 A*A^-1 deviation from unit magnitude is 9.10D-15 for   2265.
 Iteration    1 A*A^-1 deviation from orthogonality  is 6.58D-15 for   2876    160.
 Iteration    1 A^-1*A deviation from unit magnitude is 8.66D-15 for   2457.
 Iteration    1 A^-1*A deviation from orthogonality  is 6.33D-13 for   2599   2527.
 E= -1406.38368204980    
 DIIS: error= 3.86D-02 at cycle   1 NSaved=   1.
 NSaved= 1 IEnMin= 1 EnMin= -1406.38368204980     IErMin= 1 ErrMin= 3.86D-02
 ErrMax= 3.86D-02  0.00D+00 EMaxC= 1.00D-01 BMatC= 9.35D-01 BMatP= 9.35D-01
 IDIUse=3 WtCom= 6.14D-01 WtEn= 3.86D-01
 Coeff-Com:  0.100D+01
 Coeff-En:   0.100D+01
 Coeff:      0.100D+01
 Gap=     0.487 Goal=   None    Shift=    0.000
 GapD=    0.487 DampG=2.000 DampE=0.500 DampFc=1.0000 IDamp=-1.
 RMSDP=1.77D-02 MaxDP=3.70D+00              OVMax= 2.17D-01

 Cycle   2  Pass 1  IDiag  1:
 RMSU=  1.60D-02    CP:  8.24D-01
 E= -1406.52504953828     Delta-E=       -0.141367488487 Rises=F Damp=F
 DIIS: error= 3.70D-02 at cycle   2 NSaved=   2.
 NSaved= 2 IEnMin= 2 EnMin= -1406.52504953828     IErMin= 2 ErrMin= 3.70D-02
 ErrMax= 3.70D-02  0.00D+00 EMaxC= 1.00D-01 BMatC= 6.99D-01 BMatP= 9.35D-01
 IDIUse=3 WtCom= 6.30D-01 WtEn= 3.70D-01
 Coeff-Com:  0.460D+00 0.540D+00
 Coeff-En:   0.444D+00 0.556D+00
 Coeff:      0.454D+00 0.546D+00
 Gap=     0.251 Goal=   None    Shift=    0.000
 RMSDP=1.04D-02 MaxDP=1.27D+00 DE=-1.41D-01 OVMax= 1.65D-01

 Cycle   3  Pass 1  IDiag  1:
 RMSU=  5.59D-03    CP:  8.29D-01  4.49D-01
 E= -1407.11754957361     Delta-E=       -0.592500035325 Rises=F Damp=F
 DIIS: error= 1.41D-02 at cycle   3 NSaved=   3.
 NSaved= 3 IEnMin= 3 EnMin= -1407.11754957361     IErMin= 3 ErrMin= 1.41D-02
 ErrMax= 1.41D-02  0.00D+00 EMaxC= 1.00D-01 BMatC= 6.15D-02 BMatP= 6.99D-01
 IDIUse=3 WtCom= 8.59D-01 WtEn= 1.41D-01
 Coeff-Com:  0.154D+00 0.272D+00 0.574D+00
 Coeff-En:   0.000D+00 0.000D+00 0.100D+01
 Coeff:      0.133D+00 0.233D+00 0.634D+00
 Gap=     0.244 Goal=   None    Shift=    0.000
 RMSDP=3.82D-03 MaxDP=5.75D-01 DE=-5.93D-01 OVMax= 6.24D-02

 Cycle   4  Pass 1  IDiag  1:
 RMSU=  3.30D-03    CP:  8.28D-01  5.60D-01  8.65D-01
 E= -1407.15085618483     Delta-E=       -0.033306611220 Rises=F Damp=F
 DIIS: error= 7.18D-03 at cycle   4 NSaved=   4.
 NSaved= 4 IEnMin= 4 EnMin= -1407.15085618483     IErMin= 4 ErrMin= 7.18D-03
 ErrMax= 7.18D-03  0.00D+00 EMaxC= 1.00D-01 BMatC= 1.49D-02 BMatP= 6.15D-02
 IDIUse=3 WtCom= 9.28D-01 WtEn= 7.18D-02
 Coeff-Com:  0.295D-02 0.415D-01 0.360D+00 0.596D+00
 Coeff-En:   0.000D+00 0.000D+00 0.205D+00 0.795D+00
 Coeff:      0.274D-02 0.385D-01 0.349D+00 0.610D+00
 Gap=     0.243 Goal=   None    Shift=    0.000
 RMSDP=1.84D-03 MaxDP=3.33D-01 DE=-3.33D-02 OVMax= 2.65D-02

 Cycle   5  Pass 1  IDiag  1:
 RMSU=  5.70D-04    CP:  8.02D-01  5.44D-01  9.15D-01  6.15D-01
 E= -1407.16148421594     Delta-E=       -0.010628031117 Rises=F Damp=F
 DIIS: error= 4.53D-04 at cycle   5 NSaved=   5.
 NSaved= 5 IEnMin= 5 EnMin= -1407.16148421594     IErMin= 5 ErrMin= 4.53D-04
 ErrMax= 4.53D-04  0.00D+00 EMaxC= 1.00D-01 BMatC= 2.12D-04 BMatP= 1.49D-02
 IDIUse=3 WtCom= 9.95D-01 WtEn= 4.53D-03
 Coeff-Com: -0.361D-02 0.285D-02 0.822D-01 0.206D+00 0.713D+00
 Coeff-En:   0.000D+00 0.000D+00 0.000D+00 0.000D+00 0.100D+01
 Coeff:     -0.359D-02 0.284D-02 0.818D-01 0.205D+00 0.714D+00
 Gap=     0.241 Goal=   None    Shift=    0.000
 RMSDP=2.97D-04 MaxDP=6.03D-02 DE=-1.06D-02 OVMax= 3.48D-03

 Cycle   6  Pass 1  IDiag  1:
 RMSU=  2.06D-04    CP:  8.04D-01  5.43D-01  9.30D-01  6.67D-01  9.62D-01
 E= -1407.16167064212     Delta-E=       -0.000186426179 Rises=F Damp=F
 DIIS: error= 1.85D-04 at cycle   6 NSaved=   6.
 NSaved= 6 IEnMin= 6 EnMin= -1407.16167064212     IErMin= 6 ErrMin= 1.85D-04
 ErrMax= 1.85D-04  0.00D+00 EMaxC= 1.00D-01 BMatC= 2.06D-05 BMatP= 2.12D-04
 IDIUse=3 WtCom= 9.98D-01 WtEn= 1.85D-03
 Coeff-Com: -0.150D-02-0.290D-02-0.871D-03 0.241D-01 0.286D+00 0.695D+00
 Coeff-En:   0.000D+00 0.000D+00 0.000D+00 0.000D+00 0.000D+00 0.100D+01
 Coeff:     -0.150D-02-0.289D-02-0.869D-03 0.241D-01 0.286D+00 0.695D+00
 Gap=     0.243 Goal=   None    Shift=    0.000
 RMSDP=7.54D-05 MaxDP=7.07D-03 DE=-1.86D-04 OVMax= 1.48D-03

 Cycle   7  Pass 1  IDiag  1:
 RMSU=  6.70D-05    CP:  8.04D-01  5.43D-01  9.28D-01  6.60D-01  9.92D-01
                    CP:  9.29D-01
 E= -1407.16169359762     Delta-E=       -0.000022955500 Rises=F Damp=F
 DIIS: error= 7.77D-05 at cycle   7 NSaved=   7.
 NSaved= 7 IEnMin= 7 EnMin= -1407.16169359762     IErMin= 7 ErrMin= 7.77D-05
 ErrMax= 7.77D-05  0.00D+00 EMaxC= 1.00D-01 BMatC= 1.72D-06 BMatP= 2.06D-05
 IDIUse=1 WtCom= 1.00D+00 WtEn= 0.00D+00
 Coeff-Com: -0.132D-03-0.129D-02-0.715D-02-0.124D-01 0.266D-01 0.212D+00
 Coeff-Com:  0.783D+00
 Coeff:     -0.132D-03-0.129D-02-0.715D-02-0.124D-01 0.266D-01 0.212D+00
 Coeff:      0.783D+00
 Gap=     0.243 Goal=   None    Shift=    0.000
 RMSDP=4.34D-05 MaxDP=5.34D-03 DE=-2.30D-05 OVMax= 6.81D-04

 Cycle   8  Pass 1  IDiag  1:
 RMSU=  2.78D-05    CP:  8.04D-01  5.43D-01  9.28D-01  6.59D-01  1.03D+00
                    CP:  1.02D+00  1.13D+00
 E= -1407.16169596890     Delta-E=       -0.000002371274 Rises=F Damp=F
 DIIS: error= 3.60D-05 at cycle   8 NSaved=   8.
 NSaved= 8 IEnMin= 8 EnMin= -1407.16169596890     IErMin= 8 ErrMin= 3.60D-05
 ErrMax= 3.60D-05  0.00D+00 EMaxC= 1.00D-01 BMatC= 4.58D-07 BMatP= 1.72D-06
 IDIUse=1 WtCom= 1.00D+00 WtEn= 0.00D+00
 Coeff-Com:  0.112D-03-0.284D-03-0.304D-02-0.986D-02-0.272D-01-0.665D-02
 Coeff-Com:  0.348D+00 0.698D+00
 Coeff:      0.112D-03-0.284D-03-0.304D-02-0.986D-02-0.272D-01-0.665D-02
 Coeff:      0.348D+00 0.698D+00
 Gap=     0.243 Goal=   None    Shift=    0.000
 RMSDP=2.21D-05 MaxDP=3.85D-03 DE=-2.37D-06 OVMax= 3.47D-04

 Cycle   9  Pass 1  IDiag  1:
 RMSU=  1.20D-05    CP:  8.04D-01  5.43D-01  9.27D-01  6.55D-01  1.04D+00
                    CP:  1.04D+00  1.22D+00  9.15D-01
 E= -1407.16169660763     Delta-E=       -0.000000638737 Rises=F Damp=F
 DIIS: error= 1.52D-05 at cycle   9 NSaved=   9.
 NSaved= 9 IEnMin= 9 EnMin= -1407.16169660763     IErMin= 9 ErrMin= 1.52D-05
 ErrMax= 1.52D-05  0.00D+00 EMaxC= 1.00D-01 BMatC= 4.55D-08 BMatP= 4.58D-07
 IDIUse=1 WtCom= 1.00D+00 WtEn= 0.00D+00
 Coeff-Com:  0.477D-04 0.101D-03 0.265D-03-0.141D-02-0.127D-01-0.384D-01
 Coeff-Com: -0.276D-01 0.227D+00 0.852D+00
 Coeff:      0.477D-04 0.101D-03 0.265D-03-0.141D-02-0.127D-01-0.384D-01
 Coeff:     -0.276D-01 0.227D+00 0.852D+00
 Gap=     0.243 Goal=   None    Shift=    0.000
 RMSDP=8.52D-06 MaxDP=1.19D-03 DE=-6.39D-07 OVMax= 1.60D-04

 Cycle  10  Pass 1  IDiag  1:
 RMSU=  3.61D-06    CP:  8.04D-01  5.43D-01  9.27D-01  6.54D-01  1.05D+00
                    CP:  1.05D+00  1.28D+00  1.05D+00  1.13D+00
 E= -1407.16169668151     Delta-E=       -0.000000073880 Rises=F Damp=F
 DIIS: error= 2.04D-06 at cycle  10 NSaved=  10.
 NSaved=10 IEnMin=10 EnMin= -1407.16169668151     IErMin=10 ErrMin= 2.04D-06
 ErrMax= 2.04D-06  0.00D+00 EMaxC= 1.00D-01 BMatC= 4.94D-09 BMatP= 4.55D-08
 IDIUse=1 WtCom= 1.00D+00 WtEn= 0.00D+00
 Coeff-Com:  0.858D-05 0.655D-04 0.393D-03 0.338D-03-0.240D-02-0.136D-01
 Coeff-Com: -0.416D-01 0.250D-01 0.334D+00 0.698D+00
 Coeff:      0.858D-05 0.655D-04 0.393D-03 0.338D-03-0.240D-02-0.136D-01
 Coeff:     -0.416D-01 0.250D-01 0.334D+00 0.698D+00
 Gap=     0.243 Goal=   None    Shift=    0.000
 RMSDP=2.09D-06 MaxDP=2.74D-04 DE=-7.39D-08 OVMax= 2.82D-05

 Cycle  11  Pass 1  IDiag  1:
 RMSU=  8.53D-07    CP:  8.04D-01  5.43D-01  9.27D-01  6.54D-01  1.05D+00
                    CP:  1.05D+00  1.29D+00  1.06D+00  1.22D+00  1.09D+00
 E= -1407.16169668705     Delta-E=       -0.000000005534 Rises=F Damp=F
 DIIS: error= 1.03D-06 at cycle  11 NSaved=  11.
 NSaved=11 IEnMin=11 EnMin= -1407.16169668705     IErMin=11 ErrMin= 1.03D-06
 ErrMax= 1.03D-06  0.00D+00 EMaxC= 1.00D-01 BMatC= 5.76D-10 BMatP= 4.94D-09
 IDIUse=1 WtCom= 1.00D+00 WtEn= 0.00D+00
 Coeff-Com: -0.207D-05 0.138D-04 0.126D-03 0.276D-03 0.447D-03-0.743D-03
 Coeff-Com: -0.125D-01-0.156D-01 0.331D-01 0.277D+00 0.718D+00
 Coeff:     -0.207D-05 0.138D-04 0.126D-03 0.276D-03 0.447D-03-0.743D-03
 Coeff:     -0.125D-01-0.156D-01 0.331D-01 0.277D+00 0.718D+00
 Gap=     0.243 Goal=   None    Shift=    0.000
 RMSDP=6.78D-07 MaxDP=9.34D-05 DE=-5.53D-09 OVMax= 9.59D-06

 Cycle  12  Pass 1  IDiag  1:
 RMSU=  3.27D-07    CP:  8.04D-01  5.43D-01  9.27D-01  6.53D-01  1.05D+00
                    CP:  1.05D+00  1.29D+00  1.06D+00  1.25D+00  1.15D+00
                    CP:  1.12D+00
 E= -1407.16169668783     Delta-E=       -0.000000000785 Rises=F Damp=F
 DIIS: error= 3.66D-07 at cycle  12 NSaved=  12.
 NSaved=12 IEnMin=12 EnMin= -1407.16169668783     IErMin=12 ErrMin= 3.66D-07
 ErrMax= 3.66D-07  0.00D+00 EMaxC= 1.00D-01 BMatC= 8.66D-11 BMatP= 5.76D-10
 IDIUse=1 WtCom= 1.00D+00 WtEn= 0.00D+00
 Coeff-Com: -0.139D-05-0.105D-05 0.114D-04 0.698D-04 0.425D-03 0.121D-02
 Coeff-Com: -0.720D-03-0.894D-02-0.233D-01 0.382D-01 0.313D+00 0.680D+00
 Coeff:     -0.139D-05-0.105D-05 0.114D-04 0.698D-04 0.425D-03 0.121D-02
 Coeff:     -0.720D-03-0.894D-02-0.233D-01 0.382D-01 0.313D+00 0.680D+00
 Gap=     0.243 Goal=   None    Shift=    0.000
 RMSDP=2.07D-07 MaxDP=1.56D-05 DE=-7.85D-10 OVMax= 3.14D-06

 Cycle  13  Pass 1  IDiag  1:
 RMSU=  1.11D-07    CP:  8.04D-01  5.43D-01  9.27D-01  6.53D-01  1.05D+00
                    CP:  1.05D+00  1.29D+00  1.06D+00  1.25D+00  1.18D+00
                    CP:  1.22D+00  1.15D+00
 E= -1407.16169668793     Delta-E=       -0.000000000100 Rises=F Damp=F
 DIIS: error= 1.23D-07 at cycle  13 NSaved=  13.
 NSaved=13 IEnMin=13 EnMin= -1407.16169668793     IErMin=13 ErrMin= 1.23D-07
 ErrMax= 1.23D-07  0.00D+00 EMaxC= 1.00D-01 BMatC= 8.47D-12 BMatP= 8.66D-11
 IDIUse=1 WtCom= 1.00D+00 WtEn= 0.00D+00
 Coeff-Com: -0.245D-06-0.208D-05-0.982D-05-0.120D-04 0.958D-04 0.519D-03
 Coeff-Com:  0.122D-02-0.765D-03-0.129D-01-0.265D-01 0.120D-01 0.238D+00
 Coeff-Com:  0.789D+00
 Coeff:     -0.245D-06-0.208D-05-0.982D-05-0.120D-04 0.958D-04 0.519D-03
 Coeff:      0.122D-02-0.765D-03-0.129D-01-0.265D-01 0.120D-01 0.238D+00
 Coeff:      0.789D+00
 Gap=     0.243 Goal=   None    Shift=    0.000
 RMSDP=1.03D-07 MaxDP=9.28D-06 DE=-1.00D-10 OVMax= 1.93D-06

 Cycle  14  Pass 1  IDiag  1:
 RMSU=  4.53D-08    CP:  8.04D-01  5.43D-01  9.27D-01  6.53D-01  1.05D+00
                    CP:  1.05D+00  1.29D+00  1.06D+00  1.25D+00  1.19D+00
                    CP:  1.24D+00  1.25D+00  1.24D+00
 E= -1407.16169668796     Delta-E=       -0.000000000032 Rises=F Damp=F
 DIIS: error= 4.70D-08 at cycle  14 NSaved=  14.
 NSaved=14 IEnMin=14 EnMin= -1407.16169668796     IErMin=14 ErrMin= 4.70D-08
 ErrMax= 4.70D-08  0.00D+00 EMaxC= 1.00D-01 BMatC= 1.09D-12 BMatP= 8.47D-12
 IDIUse=1 WtCom= 1.00D+00 WtEn= 0.00D+00
 Coeff-Com:  0.198D-07-0.608D-06-0.373D-05-0.910D-05 0.219D-05 0.791D-04
 Coeff-Com:  0.421D-03 0.583D-03-0.277D-02-0.135D-01-0.233D-01 0.245D-01
 Coeff-Com:  0.309D+00 0.705D+00
 Coeff:      0.198D-07-0.608D-06-0.373D-05-0.910D-05 0.219D-05 0.791D-04
 Coeff:      0.421D-03 0.583D-03-0.277D-02-0.135D-01-0.233D-01 0.245D-01
 Coeff:      0.309D+00 0.705D+00
 Gap=     0.243 Goal=   None    Shift=    0.000
 RMSDP=2.25D-08 MaxDP=2.55D-06 DE=-3.18D-11 OVMax= 6.48D-07

 Cycle  15  Pass 1  IDiag  1:
 RMSU=  1.21D-08    CP:  8.04D-01  5.43D-01  9.27D-01  6.53D-01  1.05D+00
                    CP:  1.05D+00  1.29D+00  1.06D+00  1.25D+00  1.19D+00
                    CP:  1.24D+00  1.29D+00  1.31D+00  1.03D+00
 E= -1407.16169668794     Delta-E=        0.000000000023 Rises=F Damp=F
 DIIS: error= 2.01D-08 at cycle  15 NSaved=  15.
 NSaved=15 IEnMin=14 EnMin= -1407.16169668796     IErMin=15 ErrMin= 2.01D-08
 ErrMax= 2.01D-08  0.00D+00 EMaxC= 1.00D-01 BMatC= 2.02D-13 BMatP= 1.09D-12
 IDIUse=1 WtCom= 1.00D+00 WtEn= 0.00D+00
 Coeff-Com:  0.488D-07 0.126D-06 0.182D-06-0.156D-05-0.165D-04-0.640D-04
 Coeff-Com: -0.620D-04 0.431D-03 0.126D-02-0.602D-03-0.119D-01-0.373D-01
 Coeff-Com: -0.147D-01 0.300D+00 0.763D+00
 Coeff:      0.488D-07 0.126D-06 0.182D-06-0.156D-05-0.165D-04-0.640D-04
 Coeff:     -0.620D-04 0.431D-03 0.126D-02-0.602D-03-0.119D-01-0.373D-01
 Coeff:     -0.147D-01 0.300D+00 0.763D+00
 Gap=     0.243 Goal=   None    Shift=    0.000
 RMSDP=1.26D-08 MaxDP=1.49D-06 DE= 2.27D-11 OVMax= 3.57D-07

 Cycle  16  Pass 1  IDiag  1:
 RMSU=  5.47D-09    CP:  8.04D-01  5.43D-01  9.27D-01  6.53D-01  1.05D+00
                    CP:  1.05D+00  1.29D+00  1.06D+00  1.25D+00  1.19D+00
                    CP:  1.24D+00  1.30D+00  1.36D+00  1.08D+00  1.24D+00
 E= -1407.16169668807     Delta-E=       -0.000000000133 Rises=F Damp=F
 DIIS: error= 7.43D-09 at cycle  16 NSaved=  16.
 NSaved=16 IEnMin=16 EnMin= -1407.16169668807     IErMin=16 ErrMin= 7.43D-09
 ErrMax= 7.43D-09  0.00D+00 EMaxC= 1.00D-01 BMatC= 2.05D-14 BMatP= 2.02D-13
 IDIUse=1 WtCom= 1.00D+00 WtEn= 0.00D+00
 Coeff-Com:  0.783D-08 0.888D-07 0.283D-06 0.489D-06-0.488D-05-0.258D-04
 Coeff-Com: -0.645D-04 0.480D-04 0.690D-03 0.169D-02-0.162D-03-0.148D-01
 Coeff-Com: -0.453D-01-0.569D-02 0.242D+00 0.822D+00
 Coeff:      0.783D-08 0.888D-07 0.283D-06 0.489D-06-0.488D-05-0.258D-04
 Coeff:     -0.645D-04 0.480D-04 0.690D-03 0.169D-02-0.162D-03-0.148D-01
 Coeff:     -0.453D-01-0.569D-02 0.242D+00 0.822D+00
 Gap=     0.243 Goal=   None    Shift=    0.000
 RMSDP=4.57D-09 MaxDP=6.20D-07 DE=-1.33D-10 OVMax= 1.46D-07

 Error on total polarization charges =  0.05354
 SCF Done:  E(RM062X) =  -1407.16169669     A.U. after   16 cycles
            NFock= 16  Conv=0.46D-08     -V/T= 2.0038
 KE= 1.401880552652D+03 PE=-7.937735046231D+03 EE= 2.806399219490D+03
 SMD-CDS (non-electrostatic) energy       (kcal/mol) =      -7.40
 (included in total energy above)
 Leave Link  502 at Wed Jul 11 20:15:20 2018, MaxMem=  2147483648 cpu:      5798.6
 (Enter /ihome/crc/build/g09/g09-D.01/TAR/g09/l601.exe)
 Copying SCF densities to generalized density rwf, IOpCl= 0 IROHF=0.

 **********************************************************************

            Population analysis using the SCF density.

 **********************************************************************

 Orbital symmetries:
       Occupied  (A) (A) (A) (A) (A) (A) (A) (A) (A) (A) (A) (A)
                 (A) (A) (A) (A) (A) (A) (A) (A) (A) (A) (A) (A)
                 (A) (A) (A) (A) (A) (A) (A) (A) (A) (A) (A) (A)
                 (A) (A) (A) (A) (A) (A) (A) (A) (A) (A) (A) (A)
                 (A) (A) (A) (A) (A) (A) (A) (A) (A) (A) (A) (A)
                 (A) (A) (A) (A) (A) (A) (A) (A) (A) (A) (A) (A)
                 (A) (A) (A) (A) (A) (A) (A) (A) (A) (A) (A) (A)
                 (A) (A) (A) (A) (A) (A) (A) (A) (A)
       Virtual   (A) (A) (A) (A) (A) (A) (A) (A) (A) (A) (A) (A)
                 (A) (A) (A) (A) (A) (A) (A) (A) (A) (A) (A) (A)
                 (A) (A) (A) (A) (A) (A) (A) (A) (A) (A) (A) (A)
                 (A) (A) (A) (A) (A) (A) (A) (A) (A) (A) (A) (A)
                 (A) (A) (A) (A) (A) (A) (A) (A) (A) (A) (A) (A)
                 (A) (A) (A) (A) (A) (A) (A) (A) (A) (A) (A) (A)
                 (A) (A) (A) (A) (A) (A) (A) (A) (A) (A) (A) (A)
                 (A) (A) (A) (A) (A) (A) (A) (A) (A) (A) (A) (A)
                 (A) (A) (A) (A) (A) (A) (A) (A) (A) (A) (A) (A)
                 (A) (A) (A) (A) (A) (A) (A) (A) (A) (A) (A) (A)
                 (A) (A) (A) (A) (A) (A) (A) (A) (A) (A) (A) (A)
                 (A) (A) (A) (A) (A) (A) (A) (A) (A) (A) (A) (A)
                 (A) (A) (A) (A) (A) (A) (A) (A) (A) (A) (A) (A)
                 (A) (A) (A) (A) (A) (A) (A) (A) (A) (A) (A) (A)
                 (A) (A) (A) (A) (A) (A) (A) (A) (A) (A) (A) (A)
                 (A) (A) (A) (A) (A) (A) (A) (A) (A) (A) (A) (A)
                 (A) (A) (A) (A) (A) (A) (A) (A) (A) (A) (A) (A)
                 (A) (A) (A) (A) (A) (A) (A) (A) (A) (A) (A) (A)
                 (A) (A) (A) (A) (A) (A) (A) (A) (A) (A) (A) (A)
                 (A) (A) (A) (A) (A) (A) (A) (A) (A) (A) (A) (A)
                 (A) (A) (A) (A) (A) (A) (A) (A) (A) (A) (A) (A)
                 (A) (A) (A) (A) (A) (A) (A) (A) (A) (A) (A) (A)
                 (A) (A) (A) (A) (A) (A) (A) (A) (A) (A) (A) (A)
                 (A) (A) (A) (A) (A) (A) (A) (A) (A) (A) (A) (A)
                 (A) (A) (A) (A) (A) (A) (A) (A) (A) (A) (A) (A)
                 (A) (A) (A) (A) (A) (A) (A) (A) (A) (A) (A) (A)
                 (A) (A) (A) (A) (A) (A) (A) (A) (A) (A) (A) (A)
                 (A) (A) (A) (A) (A) (A) (A) (A) (A) (A) (A) (A)
                 (A) (A) (A) (A) (A) (A) (A) (A) (A) (A) (A) (A)
                 (A) (A) (A) (A) (A) (A) (A) (A) (A) (A) (A) (A)
                 (A) (A) (A) (A) (A) (A) (A) (A) (A) (A) (A) (A)
                 (A) (A) (A) (A) (A) (A) (A) (A) (A) (A) (A) (A)
                 (A) (A) (A) (A) (A) (A) (A) (A) (A) (A) (A) (A)
                 (A) (A) (A) (A) (A) (A) (A) (A) (A) (A) (A) (A)
                 (A) (A) (A) (A) (A) (A) (A) (A) (A) (A) (A) (A)
                 (A) (A) (A) (A) (A) (A) (A) (A) (A) (A) (A) (A)
                 (A) (A) (A) (A) (A) (A) (A) (A) (A) (A) (A) (A)
                 (A) (A) (A) (A) (A) (A) (A) (A) (A) (A) (A) (A)
                 (A) (A) (A) (A) (A) (A) (A) (A) (A) (A) (A) (A)
                 (A) (A) (A) (A) (A) (A) (A) (A) (A) (A) (A) (A)
                 (A) (A) (A) (A) (A) (A) (A) (A) (A) (A) (A) (A)
                 (A) (A) (A) (A) (A) (A) (A) (A) (A) (A) (A) (A)
                 (A) (A) (A) (A) (A) (A) (A) (A) (A) (A) (A) (A)
                 (A) (A) (A) (A) (A) (A) (A) (A) (A) (A) (A) (A)
                 (A) (A) (A) (A) (A) (A) (A) (A) (A) (A) (A) (A)
                 (A) (A) (A) (A) (A) (A) (A) (A) (A) (A) (A) (A)
                 (A) (A) (A) (A) (A) (A) (A) (A) (A) (A) (A) (A)
                 (A) (A) (A) (A) (A) (A) (A) (A) (A) (A) (A) (A)
                 (A) (A) (A) (A) (A) (A) (A) (A) (A) (A) (A) (A)
                 (A) (A) (A) (A) (A) (A) (A) (A) (A) (A) (A) (A)
                 (A) (A) (A) (A) (A) (A) (A) (A)
 The electronic state is 1-A.
 Alpha  occ. eigenvalues -- -102.67845 -19.65839 -14.73195 -10.70351 -10.58080
 Alpha  occ. eigenvalues --  -10.57359 -10.57336 -10.56726 -10.56649 -10.56336
 Alpha  occ. eigenvalues --  -10.55868 -10.55835 -10.55813 -10.54525 -10.54497
 Alpha  occ. eigenvalues --  -10.53418 -10.53215 -10.52593 -10.51701 -10.51692
 Alpha  occ. eigenvalues --  -10.51537 -10.51458 -10.51221 -10.50990  -9.82182
 Alpha  occ. eigenvalues --   -7.54631  -7.54063  -7.53998  -1.22243  -1.04865
 Alpha  occ. eigenvalues --   -0.98668  -0.94951  -0.92932  -0.91276  -0.89928
 Alpha  occ. eigenvalues --   -0.87498  -0.86154  -0.82615  -0.79463  -0.76977
 Alpha  occ. eigenvalues --   -0.76833  -0.76552  -0.76196  -0.74276  -0.71125
 Alpha  occ. eigenvalues --   -0.70636  -0.68752  -0.65399  -0.61836  -0.61136
 Alpha  occ. eigenvalues --   -0.60157  -0.56775  -0.56653  -0.56025  -0.55822
 Alpha  occ. eigenvalues --   -0.53502  -0.52348  -0.52321  -0.52006  -0.51927
 Alpha  occ. eigenvalues --   -0.50696  -0.50460  -0.49833  -0.49194  -0.48491
 Alpha  occ. eigenvalues --   -0.48266  -0.46037  -0.45576  -0.45228  -0.44912
 Alpha  occ. eigenvalues --   -0.44558  -0.43980  -0.43582  -0.43372  -0.42337
 Alpha  occ. eigenvalues --   -0.42281  -0.41868  -0.41596  -0.41500  -0.40139
 Alpha  occ. eigenvalues --   -0.39278  -0.39142  -0.38355  -0.38248  -0.37611
 Alpha  occ. eigenvalues --   -0.37429  -0.36840  -0.36467  -0.33060  -0.32557
 Alpha  occ. eigenvalues --   -0.31875  -0.30874  -0.29146
 Alpha virt. eigenvalues --   -0.04885   0.00151   0.00743   0.01201   0.01797
 Alpha virt. eigenvalues --    0.02054   0.02117   0.02562   0.03164   0.03337
 Alpha virt. eigenvalues --    0.03664   0.04108   0.04192   0.04815   0.05010
 Alpha virt. eigenvalues --    0.05360   0.05464   0.05668   0.06180   0.06416
 Alpha virt. eigenvalues --    0.06520   0.07028   0.07293   0.07616   0.07890
 Alpha virt. eigenvalues --    0.07987   0.08397   0.08971   0.09218   0.09382
 Alpha virt. eigenvalues --    0.09859   0.10079   0.10393   0.10601   0.11319
 Alpha virt. eigenvalues --    0.11522   0.11938   0.12102   0.12443   0.12655
 Alpha virt. eigenvalues --    0.12728   0.13670   0.13892   0.14049   0.14340
 Alpha virt. eigenvalues --    0.14609   0.14840   0.15414   0.15450   0.15649
 Alpha virt. eigenvalues --    0.16006   0.16457   0.16617   0.16696   0.17371
 Alpha virt. eigenvalues --    0.17703   0.17910   0.18123   0.18523   0.18677
 Alpha virt. eigenvalues --    0.18823   0.19120   0.19595   0.19910   0.20136
 Alpha virt. eigenvalues --    0.20233   0.20355   0.21153   0.21204   0.21716
 Alpha virt. eigenvalues --    0.21839   0.22023   0.22353   0.22606   0.22787
 Alpha virt. eigenvalues --    0.22951   0.23110   0.23544   0.23630   0.23968
 Alpha virt. eigenvalues --    0.24051   0.24206   0.24404   0.24706   0.24870
 Alpha virt. eigenvalues --    0.24944   0.25272   0.25742   0.25873   0.26207
 Alpha virt. eigenvalues --    0.26437   0.26886   0.26961   0.27212   0.27293
 Alpha virt. eigenvalues --    0.27683   0.28014   0.28276   0.28430   0.28705
 Alpha virt. eigenvalues --    0.28912   0.29253   0.29477   0.29724   0.29938
 Alpha virt. eigenvalues --    0.30203   0.30293   0.30620   0.31040   0.31154
 Alpha virt. eigenvalues --    0.31384   0.31983   0.32027   0.32242   0.32389
 Alpha virt. eigenvalues --    0.32982   0.33150   0.33485   0.33879   0.34070
 Alpha virt. eigenvalues --    0.34487   0.34682   0.35069   0.35231   0.35695
 Alpha virt. eigenvalues --    0.36002   0.36030   0.36405   0.36824   0.37182
 Alpha virt. eigenvalues --    0.37602   0.37987   0.38518   0.39117   0.39605
 Alpha virt. eigenvalues --    0.39980   0.40067   0.40517   0.41716   0.42466
 Alpha virt. eigenvalues --    0.42914   0.43660   0.45394   0.45539   0.45967
 Alpha virt. eigenvalues --    0.46608   0.47128   0.48845   0.49149   0.50117
 Alpha virt. eigenvalues --    0.50255   0.51804   0.52146   0.53183   0.53296
 Alpha virt. eigenvalues --    0.53667   0.53968   0.54725   0.55903   0.56246
 Alpha virt. eigenvalues --    0.57091   0.57594   0.58142   0.58693   0.58977
 Alpha virt. eigenvalues --    0.59222   0.59692   0.59996   0.60407   0.60837
 Alpha virt. eigenvalues --    0.61025   0.61545   0.61800   0.62368   0.62504
 Alpha virt. eigenvalues --    0.62679   0.63896   0.64577   0.65106   0.65820
 Alpha virt. eigenvalues --    0.66874   0.67147   0.67429   0.68082   0.68507
 Alpha virt. eigenvalues --    0.69021   0.69153   0.69194   0.70151   0.70449
 Alpha virt. eigenvalues --    0.70896   0.71277   0.71983   0.72037   0.72485
 Alpha virt. eigenvalues --    0.72845   0.73132   0.73652   0.74159   0.74650
 Alpha virt. eigenvalues --    0.74959   0.75219   0.75437   0.75608   0.75784
 Alpha virt. eigenvalues --    0.76394   0.76991   0.77452   0.77740   0.77937
 Alpha virt. eigenvalues --    0.78329   0.78626   0.79028   0.79450   0.79827
 Alpha virt. eigenvalues --    0.80061   0.80311   0.80522   0.80896   0.81677
 Alpha virt. eigenvalues --    0.81918   0.82631   0.82784   0.83381   0.83972
 Alpha virt. eigenvalues --    0.84567   0.85072   0.85679   0.86107   0.86502
 Alpha virt. eigenvalues --    0.86685   0.87494   0.87737   0.88245   0.88645
 Alpha virt. eigenvalues --    0.89144   0.89708   0.90887   0.91476   0.92862
 Alpha virt. eigenvalues --    0.93057   0.94001   0.95205   0.95646   0.96200
 Alpha virt. eigenvalues --    0.97199   0.97930   0.98578   1.00050   1.00456
 Alpha virt. eigenvalues --    1.00799   1.01793   1.02585   1.02939   1.03444
 Alpha virt. eigenvalues --    1.04446   1.05257   1.05822   1.05985   1.07274
 Alpha virt. eigenvalues --    1.07532   1.08877   1.09787   1.10080   1.11267
 Alpha virt. eigenvalues --    1.11466   1.12412   1.12543   1.12874   1.13368
 Alpha virt. eigenvalues --    1.14245   1.15619   1.16316   1.16855   1.17235
 Alpha virt. eigenvalues --    1.18031   1.18805   1.19617   1.20143   1.21307
 Alpha virt. eigenvalues --    1.22332   1.22945   1.23987   1.26509   1.26888
 Alpha virt. eigenvalues --    1.28545   1.29420   1.30304   1.31251   1.32328
 Alpha virt. eigenvalues --    1.33519   1.34063   1.34147   1.35606   1.36669
 Alpha virt. eigenvalues --    1.36804   1.41160   1.43018   1.45656   1.46300
 Alpha virt. eigenvalues --    1.47142   1.48096   1.49555   1.50538   1.50741
 Alpha virt. eigenvalues --    1.51374   1.51717   1.52425   1.52863   1.53327
[...]
   383. RY*(   5) H  22                  0.00003     2.71282   
   439. RY*(   1) H  26                  0.00063     0.76440   
   440. RY*(   2) H  26                  0.00026     2.00494   
   441. RY*(   3) H  26                  0.00009     1.94444   
   442. RY*(   4) H  26                  0.00005     1.93150   
   443. RY*(   5) H  26                  0.00003     2.61333   
   444. RY*(   1) H  27                  0.00060     1.16517   
   445. RY*(   2) H  27                  0.00018     1.72729   
   446. RY*(   3) H  27                  0.00007     1.85661   
   447. RY*(   4) H  27                  0.00005     1.86089   
   448. RY*(   5) H  27                  0.00002     2.72835   
   449. RY*(   1) H  28                  0.00085     0.94633   
   450. RY*(   2) H  28                  0.00025     1.93797   
   451. RY*(   3) H  28                  0.00009     1.98799   
   452. RY*(   4) H  28                  0.00007     1.84636   
   453. RY*(   5) H  28                  0.00002     2.64678   
   454. RY*(   1) C  29                  0.00304     0.73030   
   455. RY*(   2) C  29                  0.00249     0.79020   
   456. RY*(   3) C  29                  0.00107     1.03431   
   457. RY*(   4) C  29                  0.00016     1.24983   
   458. RY*(   5) C  29                  0.00012     0.82139   
   459. RY*(   6) C  29                  0.00009     1.40941   
   460. RY*(   7) C  29                  0.00005     1.84529   
   461. RY*(   8) C  29                  0.00005     1.98843   
   462. RY*(   9) C  29                  0.00002     0.76978   
   463. RY*(  10) C  29                  0.00001     1.63841   
   464. RY*(  11) C  29                  0.00002     1.72509   
   465. RY*(  12) C  29                  0.00001     1.87478   
   466. RY*(  13) C  29                  0.00001     2.47061   
   467. RY*(  14) C  29                  0.00001     2.07406   
   468. RY*(  15) C  29                  0.00000     2.54279   
   469. RY*(  16) C  29                  0.00001     2.79432   
   470. RY*(  17) C  29                  0.00000    23.17523   
   471. RY*(   1) C  30                  0.00317     0.75168   
   472. RY*(   2) C  30                  0.00278     0.77129   
   473. RY*(   3) C  30                  0.00115     1.01220   
   474. RY*(   4) C  30                  0.00020     1.14806   
   475. RY*(   5) C  30                  0.00013     0.79614   
   476. RY*(   6) C  30                  0.00009     1.53175   
   477. RY*(   7) C  30                  0.00007     1.21634   
   478. RY*(   8) C  30                  0.00006     2.00377   
   479. RY*(   9) C  30                  0.00003     1.94236   
   480. RY*(  10) C  30                  0.00003     2.30710   
   481. RY*(  11) C  30                  0.00001     0.51656   
   482. RY*(  12) C  30                  0.00001     1.98589   
   483. RY*(  13) C  30                  0.00000    23.27147   
   484. RY*(  14) C  30                  0.00000     2.95580   
   485. RY*(  15) C  30                  0.00001     1.99913   
   486. RY*(  16) C  30                  0.00001     2.09661   
   487. RY*(  17) C  30                  0.00001     2.90445   
   488. RY*(   1) C  31                  0.00306     0.75316   
   489. RY*(   2) C  31                  0.00284     0.79646   
   490. RY*(   3) C  31                  0.00077     1.09824   
   491. RY*(   4) C  31                  0.00030     0.96780   
   492. RY*(   5) C  31                  0.00011     1.37949   
   493. RY*(   6) C  31                  0.00007     1.11851   
   494. RY*(   7) C  31                  0.00006     0.94082   
   495. RY*(   8) C  31                  0.00004     2.27000   
   496. RY*(   9) C  31                  0.00004     2.21301   
   497. RY*(  10) C  31                  0.00002     2.00743   
   498. RY*(  11) C  31                  0.00002     1.67990   
   499. RY*(  12) C  31                  0.00002     2.18566   
   500. RY*(  13) C  31                  0.00001     3.06341   
   501. RY*(  14) C  31                  0.00001     1.85744   
   502. RY*(  15) C  31                  0.00001     2.71749   
   503. RY*(  16) C  31                  0.00000    23.21605   
   504. RY*(  17) C  31                  0.00001     1.17738   
   505. RY*(   1) C  32                  0.00304     0.72542   
   506. RY*(   2) C  32                  0.00239     0.77803   
   507. RY*(   3) C  32                  0.00092     1.06335   
   508. RY*(   4) C  32                  0.00018     0.88359   
   509. RY*(   5) C  32                  0.00012     1.37662   
   510. RY*(   6) C  32                  0.00008     1.34740   
   511. RY*(   7) C  32                  0.00006     1.88074   
   512. RY*(   8) C  32                  0.00004     0.72699   
   513. RY*(   9) C  32                  0.00003     2.36052   
   514. RY*(  10) C  32                  0.00002     1.21491   
   515. RY*(  11) C  32                  0.00001     2.59962   
   516. RY*(  12) C  32                  0.00001     1.37925   
   517. RY*(  13) C  32                  0.00001     1.83722   
   518. RY*(  14) C  32                  0.00001     2.02493   
   519. RY*(  15) C  32                  0.00000    23.19938   
   520. RY*(  16) C  32                  0.00000     2.41053   
   521. RY*(  17) C  32                  0.00000     2.90205   
   522. RY*(   1) C  33                  0.00301     0.72528   
   523. RY*(   2) C  33                  0.00234     0.78868   
   524. RY*(   3) C  33                  0.00093     1.06261   
   525. RY*(   4) C  33                  0.00018     0.89355   
   526. RY*(   5) C  33                  0.00012     1.15689   
   527. RY*(   6) C  33                  0.00010     1.31006   
   528. RY*(   7) C  33                  0.00005     0.75453   
   529. RY*(   8) C  33                  0.00006     1.76688   
   530. RY*(   9) C  33                  0.00003     2.35626   
   531. RY*(  10) C  33                  0.00001     3.02528   
   532. RY*(  11) C  33                  0.00001     2.46996   
   533. RY*(  12) C  33                  0.00001     1.97554   
   534. RY*(  13) C  33                  0.00001     0.89093   
   535. RY*(  14) C  33                  0.00002     2.28481   
   536. RY*(  15) C  33                  0.00000     2.28796   
   537. RY*(  16) C  33                  0.00001     1.90622   
   538. RY*(  17) C  33                  0.00000    23.14922   
   539. RY*(   1) C  34                  0.00348     0.80141   
   540. RY*(   2) C  34                  0.00322     0.70431   
   541. RY*(   3) C  34                  0.00103     1.09427   
   542. RY*(   4) C  34                  0.00026     0.96173   
   543. RY*(   5) C  34                  0.00010     1.54812   
   544. RY*(   6) C  34                  0.00006     0.66378   
   545. RY*(   7) C  34                  0.00005     0.63950   
   546. RY*(   8) C  34                  0.00006     2.20760   
   547. RY*(   9) C  34                  0.00001     1.70807   
   548. RY*(  10) C  34                  0.00002     3.06401   
   549. RY*(  11) C  34                  0.00002     2.41687   
   550. RY*(  12) C  34                  0.00002     1.98168   
   551. RY*(  13) C  34                  0.00000     3.19086   
   552. RY*(  14) C  34                  0.00001     2.10748   
   553. RY*(  15) C  34                  0.00001     0.52492   
   554. RY*(  16) C  34                  0.00000    22.83910   
   555. RY*(  17) C  34                  0.00000     2.50053   
   556. RY*(   1) H  35                  0.00043     0.77903   
   557. RY*(   2) H  35                  0.00022     2.09019   
   558. RY*(   3) H  35                  0.00006     1.87585   
   559. RY*(   4) H  35                  0.00007     1.93829   
   560. RY*(   5) H  35                  0.00002     2.67422   
   561. RY*(   1) H  36                  0.00043     0.99617   
   562. RY*(   2) H  36                  0.00020     1.92493   
   563. RY*(   3) H  36                  0.00006     1.90081   
   564. RY*(   4) H  36                  0.00006     1.91417   
   565. RY*(   5) H  36                  0.00002     2.65254   
   566. RY*(   1) H  37                  0.00055     0.87299   
   567. RY*(   2) H  37                  0.00023     1.98173   
   568. RY*(   3) H  37                  0.00006     1.93020   
   569. RY*(   4) H  37                  0.00006     1.97122   
   570. RY*(   5) H  37                  0.00002     2.56248   
   571. RY*(   1) H  38                  0.00041     0.73796   
   572. RY*(   2) H  38                  0.00021     2.13617   
   573. RY*(   3) H  38                  0.00008     1.94174   
   574. RY*(   4) H  38                  0.00006     1.88992   
   575. RY*(   5) H  38                  0.00002     2.65208   
   576. RY*(   1) H  39                  0.00056     0.86656   
   577. RY*(   2) H  39                  0.00022     1.99540   
   578. RY*(   3) H  39                  0.00006     2.02469   
   579. RY*(   4) H  39                  0.00005     1.88079   
   580. RY*(   5) H  39                  0.00002     2.55587   
   581. RY*(   1) H  40                  0.00038     0.99530   
   582. RY*(   2) H  40                  0.00018     1.87237   
   583. RY*(   3) H  40                  0.00006     1.92841   
   584. RY*(   4) H  40                  0.00006     1.88113   
   585. RY*(   5) H  40                  0.00002     2.65833   
   586. RY*(   1) H  41                  0.00049     0.96541   
   587. RY*(   2) H  41                  0.00021     2.00880   
   588. RY*(   3) H  41                  0.00008     1.97830   
   589. RY*(   4) H  41                  0.00005     1.92010   
   590. RY*(   5) H  41                  0.00002     2.62389   
   591. RY*(   1) H  42                  0.00052     0.91662   
   592. RY*(   2) H  42                  0.00022     1.99778   
   593. RY*(   3) H  42                  0.00006     1.96199   
   594. RY*(   4) H  42                  0.00005     1.90308   
   595. RY*(   5) H  42                  0.00002     2.60230   
   596. RY*(   1) H  43                  0.00050     0.92680   
   597. RY*(   2) H  43                  0.00021     2.02470   
   598. RY*(   3) H  43                  0.00008     1.97445   
   599. RY*(   4) H  43                  0.00005     1.92505   
   600. RY*(   5) H  43                  0.00002     2.62362   
   601. RY*(   1) H  44                  0.00041     1.17410   
   602. RY*(   2) H  44                  0.00013     1.83909   
   603. RY*(   3) H  44                  0.00009     1.93316   
   604. RY*(   4) H  44                  0.00006     1.89467   
   605. RY*(   5) H  44                  0.00002     2.64702   
   606. RY*(   1) H  45                  0.00044     1.50902   
   607. RY*(   2) H  45                  0.00020     1.51835   
   608. RY*(   3) H  45                  0.00008     1.91568   
   609. RY*(   4) H  45                  0.00006     1.95303   
   610. RY*(   5) H  45                  0.00002     2.57535   
   611. RY*(   1) H  46                  0.00201     0.71686   
   612. RY*(   2) H  46                  0.00020     2.45245   
   613. RY*(   3) H  46                  0.00007     1.95742   
   614. RY*(   4) H  46                  0.00005     1.90813   
   615. RY*(   5) H  46                  0.00002     2.65253   
   616. RY*(   1) H  47                  0.00046     1.57317   
   617. RY*(   2) H  47                  0.00027     1.44144   
   618. RY*(   3) H  47                  0.00008     1.92243   
   619. RY*(   4) H  47                  0.00005     1.97298   
   620. RY*(   5) H  47                  0.00002     2.63122   
   621. RY*(   1) H  48                  0.00065     1.24603   
   622. RY*(   2) H  48                  0.00016     1.67996   
   623. RY*(   3) H  48                  0.00006     1.87112   
   624. RY*(   4) H  48                  0.00006     1.94338   
   625. RY*(   5) H  48                  0.00002     2.64927   
   626. RY*(   1) H  49                  0.00046     1.26064   
   627. RY*(   2) H  49                  0.00024     1.70082   
   628. RY*(   3) H  49                  0.00006     1.89621   
   629. RY*(   4) H  49                  0.00006     1.94934   
   630. RY*(   5) H  49                  0.00002     2.61975   
   631. RY*(   1) H  50                  0.00051     1.52464   
   632. RY*(   2) H  50                  0.00026     1.43495   
   633. RY*(   3) H  50                  0.00007     1.94237   
   634. RY*(   4) H  50                  0.00005     1.92837   
   635. RY*(   5) H  50                  0.00002     2.63299   
   636. RY*(   1) H  51                  0.00049     0.99177   
   637. RY*(   2) H  51                  0.00022     1.92154   
   638. RY*(   3) H  51                  0.00007     1.95082   
   639. RY*(   4) H  51                  0.00005     1.88423   
   640. RY*(   5) H  51                  0.00002     2.59006   
   641. RY*(   1) H  52                  0.00038     1.08348   
   642. RY*(   2) H  52                  0.00015     1.80864   
   643. RY*(   3) H  52                  0.00006     1.89228   
   644. RY*(   4) H  52                  0.00006     1.94875   
   645. RY*(   5) H  52                  0.00002     2.65649   
   661. BD*(   1) N   7 - C   8          0.02396     0.62355   
   662. BD*(   2) N   7 - C   8          0.38541     0.06199  667(v),672(v),198(g),215(g)
                                                    676(v),675(v),217(g),203(g)
   663. BD*(   1) N   7 - C  12          0.02396     0.61642   
   664. BD*(   1) C   8 - C   9          0.03364     0.63602   
   665. BD*(   1) C   8 - C  18          0.04536     0.47957   
   666. BD*(   1) C   9 - C  10          0.02475     0.65548   
   667. BD*(   2) C   9 - C  10          0.31616     0.07707  672(v),662(v),232(g),681(v)
                                                    683(v),253(g),267(v),685(r)
   668. BD*(   1) C   9 - H  19          0.01538     0.51075   
   669. BD*(   1) C  10 - C  11          0.02462     0.64728   
   670. BD*(   1) C  10 - C  21          0.01604     0.49257   
   671. BD*(   1) C  11 - C  12          0.03402     0.64042   
   672. BD*(   2) C  11 - C  12          0.30830     0.07711  667(v),662(v),267(g),678(v)
                                                    679(v),685(r),656(r)
   673. BD*(   1) C  11 - H  22          0.01559     0.51689   
   674. BD*(   1) C  12 - C  20          0.04487     0.47773   
   675. BD*(   1) C  18 - C  32          0.02258     0.44661   
   676. BD*(   1) C  18 - C  33          0.02288     0.44558   
   677. BD*(   1) C  18 - C  34          0.02053     0.46234   
   678. BD*(   1) C  20 - C  29          0.02332     0.44757   
   679. BD*(   1) C  20 - C  30          0.02251     0.45166   
   680. BD*(   1) C  20 - C  31          0.02074     0.45900   
   681. BD*(   1) C  21 - H  26          0.00827     0.46995   
   682. BD*(   1) C  21 - H  27          0.00426     0.47717   
   683. BD*(   1) C  21 - H  28          0.00697     0.47318   
   687. BD*(   1) C  29 - H  50          0.00651     0.49533   
   688. BD*(   1) C  29 - H  51          0.00681     0.48579   
   689. BD*(   1) C  29 - H  52          0.00615     0.48902   
   690. BD*(   1) C  30 - H  47          0.00660     0.49923   
   691. BD*(   1) C  30 - H  48          0.00681     0.49429   
   692. BD*(   1) C  30 - H  49          0.00678     0.48664   
   693. BD*(   1) C  31 - H  44          0.00684     0.48547   
   694. BD*(   1) C  31 - H  45          0.00650     0.48870   
   695. BD*(   1) C  31 - H  46          0.00730     0.49679   
   696. BD*(   1) C  32 - H  38          0.00622     0.48873   
   697. BD*(   1) C  32 - H  39          0.00684     0.48532   
   698. BD*(   1) C  32 - H  40          0.00606     0.48900   
   699. BD*(   1) C  33 - H  35          0.00609     0.48893   
   700. BD*(   1) C  33 - H  36          0.00619     0.48914   
   701. BD*(   1) C  33 - H  37          0.00694     0.48495   
   702. BD*(   1) C  34 - H  41          0.00619     0.49687   
   703. BD*(   1) C  34 - H  42          0.00723     0.49228   
   704. BD*(   1) C  34 - H  43          0.00622     0.49844   
       -------------------------------
              Total Lewis  112.21173  ( 98.4255%)
        Valence non-Lewis    1.58237  (  1.3880%)
        Rydberg non-Lewis    0.21270  (  0.1866%)
       -------------------------------
            Total unit  2  114.00680  (100.0000%)
           Charge unit  2   -0.00680
 Leave Link  607 at Wed Jul 11 20:15:27 2018, MaxMem=  2147483648 cpu:        50.0
 (Enter /ihome/crc/build/g09/g09-D.01/TAR/g09/l9999.exe)
 1\1\GINC-SMP-N67\SP\RM062X\6-311+G(d,p)\C21H28Cl1N1O1\ELK72\11-Jul-201
 8\0\\#p m062x/6-311+g(d,p) scrf=(smd,solvent=chloroform) Geom=Checkpoi
 nt pop=nbo output=wfn gfinput\\3c\\0,1\C,0,4.6643196469,0.0357942041,-
 0.7789174299\C,0,4.7573331582,-0.7680664473,0.3600261161\C,0,3.6620640
 443,0.9938443996,-0.8726322483\C,0,2.7471150561,1.1506559633,0.1795186
 413\C,0,2.8409500515,0.3470305621,1.3193634149\C,0,3.8479733096,-0.611
 4925408,1.405207539\N,0,-1.7517363304,-1.0325684718,0.1311836367\C,0,-
 2.5739961918,0.0158571771,0.0450397527\C,0,-2.3217380517,1.073296456,-
 0.8372323825\C,0,-1.1849051469,1.04926959,-1.6391598949\C,0,-0.3247051
 018,-0.0469948961,-1.5139991728\C,0,-0.6454029554,-1.077920869,-0.6283
 694511\H,0,5.3715877492,-0.0870457888,-1.5935345334\H,0,5.5397884524,-
 1.5182774156,0.4308721382\H,0,2.1346205674,0.4630036945,2.1341377257\H
 ,0,3.9172275471,-1.238308877,2.2891397921\H,0,3.5779224852,1.623071201
 5,-1.7534680497\C,0,-3.8088097265,0.0435796121,0.9492062489\H,0,-3.007
 1568536,1.9156740597,-0.8972474963\C,0,0.1915397722,-2.3503818076,-0.4
 839931115\C,0,-0.9080663658,2.1617752628,-2.6146197641\H,0,0.574498971
 2,-0.0917531773,-2.1216968352\C,0,1.7080439351,2.1928578738,-0.0027088
 633\O,0,1.6151524599,2.9290117491,-0.9361020844\Cl,0,0.5084296901,2.35
 27698003,1.3279697347\H,0,-1.6839140622,2.1910222331,-3.3884798267\H,0
 ,0.0605750379,2.0332327722,-3.1049802\H,0,-0.9084698709,3.133516471,-2
 .1102602475\C,0,-0.6235535342,-3.5227501896,-1.0543558114\C,0,0.469729
 8764,-2.6115429247,1.0034137469\C,0,1.5229756739,-2.2566492125,-1.2324
 870528\C,0,-5.0740664243,0.1991311924,0.0897358808\C,0,-3.6981652951,1
 .2417683625,1.9076025126\C,0,-3.926836328,-1.2401886222,1.7734548789\H
 ,0,-3.6304984839,2.1907162279,1.3640026762\H,0,-2.8119697451,1.1530966
 142,2.5471323218\H,0,-4.5821746232,1.2870901675,2.5553699393\H,0,-5.07
 5143092,1.1406091762,-0.4700785459\H,0,-5.9639971806,0.1924570342,0.73
 05113394\H,0,-5.165411814,-0.6240931699,-0.628469892\H,0,-4.0125658963
 ,-2.1239786141,1.132469152\H,0,-4.8222489098,-1.184186961,2.4037974399
 \H,0,-3.0568912593,-1.3830885279,2.4219975648\H,0,1.3788640427,-2.1578
 255996,-2.314879393\H,0,2.1053113359,-3.1691140851,-1.0590820367\H,0,2
 .1219503269,-1.4066095138,-0.8849773688\H,0,-0.4631110048,-2.750839535
 7,1.5570107226\H,0,1.0127271348,-1.7732418524,1.4551672622\H,0,1.08146
 08228,-3.515057856,1.1157430671\H,0,-1.578170135,-3.624898745,-0.52766
 10313\H,0,-0.0654318619,-4.4605283456,-0.9434269457\H,0,-0.8335409028,
 -3.3751908107,-2.1207195756\\Version=EM64L-G09RevD.01\State=1-A\HF=-14
 07.1616967\RMSD=4.568e-09\Dipole=1.4027818,-0.5732218,-0.261041\Quadru
 pole=11.3133651,-10.47051,-0.8428551,-10.2830174,-0.4777336,-1.6917665
 \PG=C01 [X(C21H28Cl1N1O1)]\\@

 Writing a WFN file to "3c.wfn"


 A FOOL CAN ASK MORE QUESTIONS THAN
 A WISE MAN CAN ANSWER.
 Job cpu time:       0 days  1 hours 38 minutes 17.2 seconds.
 File lengths (MBytes):  RWF=    484 Int=      0 D2E=      0 Chk=     37 Scr=      1
 Normal termination of Gaussian 09 at Wed Jul 11 20:15:27 2018.
 Read checkpoint file 3c.chk
 Write formatted file 3c.fchk
 FChkPn:  Coordinates translated and rotated.
 FChkPn:  Coordinates match /B/ after translation and rotation.
