 Entering Gaussian System, Link 0=g09
 Initial command:
 /ihome/crc/build/g09/g09-D.01/TAR/g09/l1.exe "/scratch/slurm-1121471/Gau-387016.inp" -scrdir="/scratch/slurm-1121471/"
 Entering Link 1 = /ihome/crc/build/g09/g09-D.01/TAR/g09/l1.exe PID=    387017.
  
 Copyright (c) 1988,1990,1992,1993,1995,1998,2003,2009,2013,
            Gaussian, Inc.  All Rights Reserved.
  
 This is part of the Gaussian(R) 09 program.  It is based on
 the Gaussian(R) 03 system (copyright 2003, Gaussian, Inc.),
 the Gaussian(R) 98 system (copyright 1998, Gaussian, Inc.),
 the Gaussian(R) 94 system (copyright 1995, Gaussian, Inc.),
 the Gaussian 92(TM) system (copyright 1992, Gaussian, Inc.),
 the Gaussian 90(TM) system (copyright 1990, Gaussian, Inc.),
 the Gaussian 88(TM) system (copyright 1988, Gaussian, Inc.),
 the Gaussian 86(TM) system (copyright 1986, Carnegie Mellon
 University), and the Gaussian 82(TM) system (copyright 1983,
 Carnegie Mellon University). Gaussian is a federally registered
 trademark of Gaussian, Inc.
  
 This software contains proprietary and confidential information,
 including trade secrets, belonging to Gaussian, Inc.
  
 This software is provided under written license and may be
 used, copied, transmitted, or stored only in accord with that
 written license.
  
 The following legend is applicable only to US Government
 contracts under FAR:
  
                    RESTRICTED RIGHTS LEGEND
  
 Use, reproduction and disclosure by the US Government is
 subject to restrictions as set forth in subparagraphs (a)
 and (c) of the Commercial Computer Software - Restricted
 Rights clause in FAR 52.227-19.
  
 Gaussian, Inc.
 340 Quinnipiac St., Bldg. 40, Wallingford CT 06492
  
  
 ---------------------------------------------------------------
 Warning -- This program may not be used in any manner that
 competes with the business of Gaussian, Inc. or will provide
 assistance to any competitor of Gaussian, Inc.  The licensee
 of this program is prohibited from giving any competitor of
 Gaussian, Inc. access to this program.  By using this program,
 the user acknowledges that Gaussian, Inc. is engaged in the
 business of creating and licensing software in the field of
 computational chemistry and represents and warrants to the
 licensee that it is not a competitor of Gaussian, Inc. and that
 it will not use this program in any manner prohibited above.
 ---------------------------------------------------------------
  

 Cite this work as:
 Gaussian 09, Revision D.01,
 M. J. Frisch, G. W. Trucks, H. B. Schlegel, G. E. Scuseria, 
 M. A. Robb, J. R. Cheeseman, G. Scalmani, V. Barone, B. Mennucci, 
 G. A. Petersson, H. Nakatsuji, M. Caricato, X. Li, H. P. Hratchian, 
 A. F. Izmaylov, J. Bloino, G. Zheng, J. L. Sonnenberg, M. Hada, 
 M. Ehara, K. Toyota, R. Fukuda, J. Hasegawa, M. Ishida, T. Nakajima, 
 Y. Honda, O. Kitao, H. Nakai, T. Vreven, J. A. Montgomery, Jr., 
 J. E. Peralta, F. Ogliaro, M. Bearpark, J. J. Heyd, E. Brothers, 
 K. N. Kudin, V. N. Staroverov, T. Keith, R. Kobayashi, J. Normand, 
 K. Raghavachari, A. Rendell, J. C. Burant, S. S. Iyengar, J. Tomasi, 
 M. Cossi, N. Rega, J. M. Millam, M. Klene, J. E. Knox, J. B. Cross, 
 V. Bakken, C. Adamo, J. Jaramillo, R. Gomperts, R. E. Stratmann, 
 O. Yazyev, A. J. Austin, R. Cammi, C. Pomelli, J. W. Ochterski, 
 R. L. Martin, K. Morokuma, V. G. Zakrzewski, G. A. Voth, 
 P. Salvador, J. J. Dannenberg, S. Dapprich, A. D. Daniels, 
 O. Farkas, J. B. Foresman, J. V. Ortiz, J. Cioslowski, 
 and D. J. Fox, Gaussian, Inc., Wallingford CT, 2013.
 
 ******************************************
 Gaussian 09:  EM64L-G09RevD.01 24-Apr-2013
                 8-May-2018 
 ******************************************
 %NProc=4
 Will use up to    4 processors via shared memory.
 %Mem=2GB
 %chk=2.chk
 ----------------------------------------------------------------------
 #p freq m062x/6-311+g(d,p) scrf=(smd,solvent=chloroform) Geom=Checkpoi
 nt pop=nbo
 ----------------------------------------------------------------------
 1/10=4,29=2,30=1,38=1/1,3;
 2/12=2,40=1/2;
 3/5=4,6=6,7=111,11=2,14=-4,16=1,25=1,30=1,70=32201,71=2,72=7,74=-55,140=1/1,2,3;
 4//1;
 5/5=2,38=5,53=7,98=1/2;
 8/6=4,10=90,11=11/1;
 11/6=1,8=1,9=11,15=111,16=1/1,2,10;
 10/6=1/2;
 6/7=2,8=2,9=2,10=2,18=1,28=1,40=1/1,7;
 7/8=1,10=1,25=1/1,2,3,16;
 1/10=4,30=1/3;
 99//99;
 Leave Link    1 at Tue May  8 13:03:26 2018, MaxMem=   268435456 cpu:         0.1
 (Enter /ihome/crc/build/g09/g09-D.01/TAR/g09/l101.exe)
 -----
 2.g09
 -----
 Structure from the checkpoint file:  "2.chk"
 Charge =  0 Multiplicity = 1
 Redundant internal coordinates found in file.
 C,0,-3.8996145769,1.6521991362,-0.5262365965
 C,0,-4.9569394239,0.7905808844,-0.8383479206
 N,0,-4.8042649223,-0.5382627744,-0.8301215745
 C,0,-3.613410683,-1.0672119984,-0.5163704368
 C,0,-2.5177018657,-0.2635968452,-0.1947653137
 C,0,-2.6526014158,1.1258905536,-0.1957748229
 H,0,-4.0434588871,2.7297616979,-0.5406513313
 C,0,-6.3323361843,1.3552702716,-1.2032916038
 C,0,-3.4812642658,-2.592666588,-0.5211492388
 H,0,-1.5587757502,-0.7116517462,0.0558886855
 C,0,-1.4931359999,2.0151567815,0.1660892103
 H,0,-0.5825142843,1.7084838384,-0.3585821766
 H,0,-1.2862966285,1.9571696918,1.2410330476
 H,0,-1.700565791,3.0598930386,-0.0815911102
 C,0,-6.198905304,2.2524797371,-2.445319412
 C,0,-6.8643402133,2.1930671815,-0.0283028682
 C,0,-7.3330561625,0.2378780517,-1.5062261163
 C,0,-3.0644495386,-3.0702474212,0.8801068673
 C,0,-2.403585696,-3.0052598603,-1.5378449913
 C,0,-4.8015840574,-3.2673593528,-0.9001052278
 H,0,-5.5303394625,3.1010829283,-2.2634808653
 H,0,-7.1808230185,2.6530778749,-2.7246689862
 H,0,-5.8068869136,1.6862106986,-3.2981683684
 H,0,-7.0046845913,-0.3800271396,-2.3481885264
 H,0,-8.3024987167,0.6818856745,-1.7614526057
 H,0,-7.4728924549,-0.4227164408,-0.6444910445
 H,0,-6.2068226255,3.0397419347,0.1974800694
 H,0,-6.9580106652,1.5830256209,0.8776862382
 H,0,-7.8553242628,2.593982958,-0.2730714583
 H,0,-5.6005265871,-3.0144278789,-0.1956654033
 H,0,-4.6656599822,-4.3552789684,-0.8913937083
 H,0,-5.1341750002,-2.9697138291,-1.8997624861
 H,0,-2.0965097478,-2.6537599194,1.1798176849
 H,0,-2.977509098,-4.1634079388,0.8925926643
 H,0,-3.8081627218,-2.7791458909,1.6310364128
 H,0,-1.4231426669,-2.5890241864,-1.2815444529
 H,0,-2.6651797174,-2.6653122902,-2.5466580745
 H,0,-2.3086824851,-4.0975917805,-1.5602785882
 Recover connectivity data from disk.
 NAtoms=     38 NQM=       38 NQMF=       0 NMMI=      0 NMMIF=      0
                NMic=       0 NMicF=      0.
                    Isotopes and Nuclear Properties:
 (Nuclear quadrupole moments (NQMom) in fm**2, nuclear magnetic moments (NMagM)
  in nuclear magnetons)

  Atom         1           2           3           4           5           6           7           8           9          10
 IAtWgt=          12          12          14          12          12          12           1          12          12           1
 AtmWgt=  12.0000000  12.0000000  14.0030740  12.0000000  12.0000000  12.0000000   1.0078250  12.0000000  12.0000000   1.0078250
 NucSpn=           0           0           2           0           0           0           1           0           0           1
 AtZEff=  -3.6000000  -3.6000000  -4.5500000  -3.6000000  -3.6000000  -3.6000000  -1.0000000  -3.6000000  -3.6000000  -1.0000000
 NQMom=    0.0000000   0.0000000   2.0440000   0.0000000   0.0000000   0.0000000   0.0000000   0.0000000   0.0000000   0.0000000
 NMagM=    0.0000000   0.0000000   0.4037610   0.0000000   0.0000000   0.0000000   2.7928460   0.0000000   0.0000000   2.7928460
 AtZNuc=   6.0000000   6.0000000   7.0000000   6.0000000   6.0000000   6.0000000   1.0000000   6.0000000   6.0000000   1.0000000

  Atom        11          12          13          14          15          16          17          18          19          20
 IAtWgt=          12           1           1           1          12          12          12          12          12          12
 AtmWgt=  12.0000000   1.0078250   1.0078250   1.0078250  12.0000000  12.0000000  12.0000000  12.0000000  12.0000000  12.0000000
 NucSpn=           0           1           1           1           0           0           0           0           0           0
 AtZEff=  -3.6000000  -1.0000000  -1.0000000  -1.0000000  -3.6000000  -3.6000000  -3.6000000  -3.6000000  -3.6000000  -3.6000000
 NQMom=    0.0000000   0.0000000   0.0000000   0.0000000   0.0000000   0.0000000   0.0000000   0.0000000   0.0000000   0.0000000
 NMagM=    0.0000000   2.7928460   2.7928460   2.7928460   0.0000000   0.0000000   0.0000000   0.0000000   0.0000000   0.0000000
 AtZNuc=   6.0000000   1.0000000   1.0000000   1.0000000   6.0000000   6.0000000   6.0000000   6.0000000   6.0000000   6.0000000

  Atom        21          22          23          24          25          26          27          28          29          30
 IAtWgt=           1           1           1           1           1           1           1           1           1           1
 AtmWgt=   1.0078250   1.0078250   1.0078250   1.0078250   1.0078250   1.0078250   1.0078250   1.0078250   1.0078250   1.0078250
 NucSpn=           1           1           1           1           1           1           1           1           1           1
 AtZEff=  -1.0000000  -1.0000000  -1.0000000  -1.0000000  -1.0000000  -1.0000000  -1.0000000  -1.0000000  -1.0000000  -1.0000000
 NQMom=    0.0000000   0.0000000   0.0000000   0.0000000   0.0000000   0.0000000   0.0000000   0.0000000   0.0000000   0.0000000
 NMagM=    2.7928460   2.7928460   2.7928460   2.7928460   2.7928460   2.7928460   2.7928460   2.7928460   2.7928460   2.7928460
 AtZNuc=   1.0000000   1.0000000   1.0000000   1.0000000   1.0000000   1.0000000   1.0000000   1.0000000   1.0000000   1.0000000

  Atom        31          32          33          34          35          36          37          38
 IAtWgt=           1           1           1           1           1           1           1           1
 AtmWgt=   1.0078250   1.0078250   1.0078250   1.0078250   1.0078250   1.0078250   1.0078250   1.0078250
 NucSpn=           1           1           1           1           1           1           1           1
 AtZEff=  -1.0000000  -1.0000000  -1.0000000  -1.0000000  -1.0000000  -1.0000000  -1.0000000  -1.0000000
 NQMom=    0.0000000   0.0000000   0.0000000   0.0000000   0.0000000   0.0000000   0.0000000   0.0000000
 NMagM=    2.7928460   2.7928460   2.7928460   2.7928460   2.7928460   2.7928460   2.7928460   2.7928460
 AtZNuc=   1.0000000   1.0000000   1.0000000   1.0000000   1.0000000   1.0000000   1.0000000   1.0000000
 Leave Link  101 at Tue May  8 13:03:26 2018, MaxMem=   268435456 cpu:         0.4
 (Enter /ihome/crc/build/g09/g09-D.01/TAR/g09/l103.exe)

 GradGradGradGradGradGradGradGradGradGradGradGradGradGradGradGradGradGrad
 Berny optimization.
 Initialization pass.
                           ----------------------------
                           !    Initial Parameters    !
                           ! (Angstroms and Degrees)  !
 --------------------------                            --------------------------
 ! Name  Definition              Value          Derivative Info.                !
 --------------------------------------------------------------------------------
 ! R1    R(1,2)                  1.3992         calculate D2E/DX2 analytically  !
 ! R2    R(1,6)                  1.3933         calculate D2E/DX2 analytically  !
 ! R3    R(1,7)                  1.0872         calculate D2E/DX2 analytically  !
 ! R4    R(2,3)                  1.3376         calculate D2E/DX2 analytically  !
 ! R5    R(2,8)                  1.5309         calculate D2E/DX2 analytically  !
 ! R6    R(3,4)                  1.3403         calculate D2E/DX2 analytically  !
 ! R7    R(4,5)                  1.3964         calculate D2E/DX2 analytically  !
 ! R8    R(4,9)                  1.5312         calculate D2E/DX2 analytically  !
 ! R9    R(5,6)                  1.396          calculate D2E/DX2 analytically  !
 ! R10   R(5,10)                 1.0877         calculate D2E/DX2 analytically  !
 ! R11   R(6,11)                 1.5054         calculate D2E/DX2 analytically  !
 ! R12   R(8,15)                 1.538          calculate D2E/DX2 analytically  !
 ! R13   R(8,16)                 1.538          calculate D2E/DX2 analytically  !
 ! R14   R(8,17)                 1.5303         calculate D2E/DX2 analytically  !
 ! R15   R(9,18)                 1.538          calculate D2E/DX2 analytically  !
 ! R16   R(9,19)                 1.538          calculate D2E/DX2 analytically  !
 ! R17   R(9,20)                 1.5304         calculate D2E/DX2 analytically  !
 ! R18   R(11,12)                1.0948         calculate D2E/DX2 analytically  !
 ! R19   R(11,13)                1.0962         calculate D2E/DX2 analytically  !
 ! R20   R(11,14)                1.0935         calculate D2E/DX2 analytically  !
 ! R21   R(15,21)                1.0955         calculate D2E/DX2 analytically  !
 ! R22   R(15,22)                1.0967         calculate D2E/DX2 analytically  !
 ! R23   R(15,23)                1.0962         calculate D2E/DX2 analytically  !
 ! R24   R(16,27)                1.0955         calculate D2E/DX2 analytically  !
 ! R25   R(16,28)                1.0962         calculate D2E/DX2 analytically  !
 ! R26   R(16,29)                1.0967         calculate D2E/DX2 analytically  !
 ! R27   R(17,24)                1.0948         calculate D2E/DX2 analytically  !
 ! R28   R(17,25)                1.0964         calculate D2E/DX2 analytically  !
 ! R29   R(17,26)                1.0948         calculate D2E/DX2 analytically  !
 ! R30   R(18,33)                1.0955         calculate D2E/DX2 analytically  !
 ! R31   R(18,34)                1.0967         calculate D2E/DX2 analytically  !
 ! R32   R(18,35)                1.0962         calculate D2E/DX2 analytically  !
 ! R33   R(19,36)                1.0955         calculate D2E/DX2 analytically  !
 ! R34   R(19,37)                1.0962         calculate D2E/DX2 analytically  !
 ! R35   R(19,38)                1.0967         calculate D2E/DX2 analytically  !
 ! R36   R(20,30)                1.0948         calculate D2E/DX2 analytically  !
 ! R37   R(20,31)                1.0964         calculate D2E/DX2 analytically  !
 ! R38   R(20,32)                1.0948         calculate D2E/DX2 analytically  !
 ! A1    A(2,1,6)              119.7771         calculate D2E/DX2 analytically  !
 ! A2    A(2,1,7)              120.4903         calculate D2E/DX2 analytically  !
 ! A3    A(6,1,7)              119.7325         calculate D2E/DX2 analytically  !
 ! A4    A(1,2,3)              121.6102         calculate D2E/DX2 analytically  !
 ! A5    A(1,2,8)              120.3267         calculate D2E/DX2 analytically  !
 ! A6    A(3,2,8)              118.0631         calculate D2E/DX2 analytically  !
 ! A7    A(2,3,4)              119.6646         calculate D2E/DX2 analytically  !
 ! A8    A(3,4,5)              121.6006         calculate D2E/DX2 analytically  !
 ! A9    A(3,4,9)              117.9779         calculate D2E/DX2 analytically  !
 ! A10   A(5,4,9)              120.4214         calculate D2E/DX2 analytically  !
 ! A11   A(4,5,6)              119.7901         calculate D2E/DX2 analytically  !
 ! A12   A(4,5,10)             120.5169         calculate D2E/DX2 analytically  !
 ! A13   A(6,5,10)             119.693          calculate D2E/DX2 analytically  !
 ! A14   A(1,6,5)              117.5574         calculate D2E/DX2 analytically  !
 ! A15   A(1,6,11)             121.5493         calculate D2E/DX2 analytically  !
 ! A16   A(5,6,11)             120.8884         calculate D2E/DX2 analytically  !
 ! A17   A(2,8,15)             109.2529         calculate D2E/DX2 analytically  !
 ! A18   A(2,8,16)             109.2425         calculate D2E/DX2 analytically  !
 ! A19   A(2,8,17)             111.4299         calculate D2E/DX2 analytically  !
 ! A20   A(15,8,16)            109.2192         calculate D2E/DX2 analytically  !
 ! A21   A(15,8,17)            108.8343         calculate D2E/DX2 analytically  !
 ! A22   A(16,8,17)            108.8312         calculate D2E/DX2 analytically  !
 ! A23   A(4,9,18)             109.2635         calculate D2E/DX2 analytically  !
 ! A24   A(4,9,19)             109.2573         calculate D2E/DX2 analytically  !
 ! A25   A(4,9,20)             111.4405         calculate D2E/DX2 analytically  !
 ! A26   A(18,9,19)            109.2138         calculate D2E/DX2 analytically  !
 ! A27   A(18,9,20)            108.8158         calculate D2E/DX2 analytically  !
 ! A28   A(19,9,20)            108.8186         calculate D2E/DX2 analytically  !
 ! A29   A(6,11,12)            111.0989         calculate D2E/DX2 analytically  !
 ! A30   A(6,11,13)            110.4755         calculate D2E/DX2 analytically  !
 ! A31   A(6,11,14)            111.335          calculate D2E/DX2 analytically  !
 ! A32   A(12,11,13)           107.3488         calculate D2E/DX2 analytically  !
 ! A33   A(12,11,14)           108.4724         calculate D2E/DX2 analytically  !
 ! A34   A(13,11,14)           107.9646         calculate D2E/DX2 analytically  !
 ! A35   A(8,15,21)            111.7639         calculate D2E/DX2 analytically  !
 ! A36   A(8,15,22)            109.9454         calculate D2E/DX2 analytically  !
 ! A37   A(8,15,23)            110.9748         calculate D2E/DX2 analytically  !
 ! A38   A(21,15,22)           107.8027         calculate D2E/DX2 analytically  !
 ! A39   A(21,15,23)           108.1215         calculate D2E/DX2 analytically  !
 ! A40   A(22,15,23)           108.1022         calculate D2E/DX2 analytically  !
 ! A41   A(8,16,27)            111.767          calculate D2E/DX2 analytically  !
 ! A42   A(8,16,28)            110.9652         calculate D2E/DX2 analytically  !
 ! A43   A(8,16,29)            109.9495         calculate D2E/DX2 analytically  !
 ! A44   A(27,16,28)           108.1217         calculate D2E/DX2 analytically  !
 ! A45   A(27,16,29)           107.8069         calculate D2E/DX2 analytically  !
 ! A46   A(28,16,29)           108.1003         calculate D2E/DX2 analytically  !
 ! A47   A(8,17,24)            111.6061         calculate D2E/DX2 analytically  !
 ! A48   A(8,17,25)            109.1837         calculate D2E/DX2 analytically  !
 ! A49   A(8,17,26)            111.6113         calculate D2E/DX2 analytically  !
 ! A50   A(24,17,25)           108.3458         calculate D2E/DX2 analytically  !
 ! A51   A(24,17,26)           107.6443         calculate D2E/DX2 analytically  !
 ! A52   A(25,17,26)           108.3399         calculate D2E/DX2 analytically  !
 ! A53   A(9,18,33)            111.7561         calculate D2E/DX2 analytically  !
 ! A54   A(9,18,34)            109.9615         calculate D2E/DX2 analytically  !
 ! A55   A(9,18,35)            110.9646         calculate D2E/DX2 analytically  !
 ! A56   A(33,18,34)           107.8057         calculate D2E/DX2 analytically  !
 ! A57   A(33,18,35)           108.1228         calculate D2E/DX2 analytically  !
 ! A58   A(34,18,35)           108.1            calculate D2E/DX2 analytically  !
 ! A59   A(9,19,36)            111.7477         calculate D2E/DX2 analytically  !
 ! A60   A(9,19,37)            110.9744         calculate D2E/DX2 analytically  !
 ! A61   A(9,19,38)            109.9606         calculate D2E/DX2 analytically  !
 ! A62   A(36,19,37)           108.1216         calculate D2E/DX2 analytically  !
 ! A63   A(36,19,38)           107.8046         calculate D2E/DX2 analytically  !
 ! A64   A(37,19,38)           108.1018         calculate D2E/DX2 analytically  !
 ! A65   A(9,20,30)            111.6183         calculate D2E/DX2 analytically  !
 ! A66   A(9,20,31)            109.1795         calculate D2E/DX2 analytically  !
 ! A67   A(9,20,32)            111.6137         calculate D2E/DX2 analytically  !
 ! A68   A(30,20,31)           108.3371         calculate D2E/DX2 analytically  !
 ! A69   A(30,20,32)           107.64           calculate D2E/DX2 analytically  !
 ! A70   A(31,20,32)           108.3422         calculate D2E/DX2 analytically  !
 ! D1    D(6,1,2,3)             -0.0667         calculate D2E/DX2 analytically  !
 ! D2    D(6,1,2,8)           -179.9969         calculate D2E/DX2 analytically  !
 ! D3    D(7,1,2,3)            179.8678         calculate D2E/DX2 analytically  !
 ! D4    D(7,1,2,8)             -0.0624         calculate D2E/DX2 analytically  !
 ! D5    D(2,1,6,5)              0.099          calculate D2E/DX2 analytically  !
 ! D6    D(2,1,6,11)          -179.0977         calculate D2E/DX2 analytically  !
 ! D7    D(7,1,6,5)           -179.836          calculate D2E/DX2 analytically  !
 ! D8    D(7,1,6,11)             0.9673         calculate D2E/DX2 analytically  !
 ! D9    D(1,2,3,4)              0.0111         calculate D2E/DX2 analytically  !
 ! D10   D(8,2,3,4)            179.9428         calculate D2E/DX2 analytically  !
 ! D11   D(1,2,8,15)            59.6987         calculate D2E/DX2 analytically  !
 ! D12   D(1,2,8,16)           -59.7233         calculate D2E/DX2 analytically  !
 ! D13   D(1,2,8,17)           179.9931         calculate D2E/DX2 analytically  !
 ! D14   D(3,2,8,15)          -120.2339         calculate D2E/DX2 analytically  !
 ! D15   D(3,2,8,16)           120.3441         calculate D2E/DX2 analytically  !
 ! D16   D(3,2,8,17)             0.0605         calculate D2E/DX2 analytically  !
 ! D17   D(2,3,4,5)              0.0084         calculate D2E/DX2 analytically  !
 ! D18   D(2,3,4,9)           -179.9029         calculate D2E/DX2 analytically  !
 ! D19   D(3,4,5,6)              0.0277         calculate D2E/DX2 analytically  !
 ! D20   D(3,4,5,10)          -179.9159         calculate D2E/DX2 analytically  !
 ! D21   D(9,4,5,6)            179.9369         calculate D2E/DX2 analytically  !
 ! D22   D(9,4,5,10)            -0.0067         calculate D2E/DX2 analytically  !
 ! D23   D(3,4,9,18)          -120.3994         calculate D2E/DX2 analytically  !
 ! D24   D(3,4,9,19)           120.17           calculate D2E/DX2 analytically  !
 ! D25   D(3,4,9,20)            -0.1143         calculate D2E/DX2 analytically  !
 ! D26   D(5,4,9,18)            59.6882         calculate D2E/DX2 analytically  !
 ! D27   D(5,4,9,19)           -59.7424         calculate D2E/DX2 analytically  !
 ! D28   D(5,4,9,20)           179.9732         calculate D2E/DX2 analytically  !
 ! D29   D(4,5,6,1)             -0.0805         calculate D2E/DX2 analytically  !
 ! D30   D(4,5,6,11)           179.1219         calculate D2E/DX2 analytically  !
 ! D31   D(10,5,6,1)           179.8636         calculate D2E/DX2 analytically  !
 ! D32   D(10,5,6,11)           -0.934          calculate D2E/DX2 analytically  !
 ! D33   D(1,6,11,12)         -133.5961         calculate D2E/DX2 analytically  !
 ! D34   D(1,6,11,13)          107.3755         calculate D2E/DX2 analytically  !
 ! D35   D(1,6,11,14)          -12.578          calculate D2E/DX2 analytically  !
 ! D36   D(5,6,11,12)           47.2337         calculate D2E/DX2 analytically  !
 ! D37   D(5,6,11,13)          -71.7947         calculate D2E/DX2 analytically  !
 ! D38   D(5,6,11,14)          168.2518         calculate D2E/DX2 analytically  !
 ! D39   D(2,8,15,21)          -61.0516         calculate D2E/DX2 analytically  !
 ! D40   D(2,8,15,22)          179.2725         calculate D2E/DX2 analytically  !
 ! D41   D(2,8,15,23)           59.7271         calculate D2E/DX2 analytically  !
 ! D42   D(16,8,15,21)          58.3847         calculate D2E/DX2 analytically  !
 ! D43   D(16,8,15,22)         -61.2912         calculate D2E/DX2 analytically  !
 ! D44   D(16,8,15,23)         179.1634         calculate D2E/DX2 analytically  !
 ! D45   D(17,8,15,21)         177.0755         calculate D2E/DX2 analytically  !
 ! D46   D(17,8,15,22)          57.3996         calculate D2E/DX2 analytically  !
 ! D47   D(17,8,15,23)         -62.1458         calculate D2E/DX2 analytically  !
 ! D48   D(2,8,16,27)           60.9704         calculate D2E/DX2 analytically  !
 ! D49   D(2,8,16,28)          -59.8041         calculate D2E/DX2 analytically  !
 ! D50   D(2,8,16,29)         -179.3437         calculate D2E/DX2 analytically  !
 ! D51   D(15,8,16,27)         -58.4724         calculate D2E/DX2 analytically  !
 ! D52   D(15,8,16,28)        -179.2469         calculate D2E/DX2 analytically  !
 ! D53   D(15,8,16,29)          61.2135         calculate D2E/DX2 analytically  !
 ! D54   D(17,8,16,27)        -177.1651         calculate D2E/DX2 analytically  !
 ! D55   D(17,8,16,28)          62.0604         calculate D2E/DX2 analytically  !
 ! D56   D(17,8,16,29)         -57.4792         calculate D2E/DX2 analytically  !
 ! D57   D(2,8,17,24)          -60.2955         calculate D2E/DX2 analytically  !
 ! D58   D(2,8,17,25)          179.9532         calculate D2E/DX2 analytically  !
 ! D59   D(2,8,17,26)           60.206          calculate D2E/DX2 analytically  !
 ! D60   D(15,8,17,24)          60.245          calculate D2E/DX2 analytically  !
 ! D61   D(15,8,17,25)         -59.5062         calculate D2E/DX2 analytically  !
 ! D62   D(15,8,17,26)        -179.2535         calculate D2E/DX2 analytically  !
 ! D63   D(16,8,17,24)         179.179          calculate D2E/DX2 analytically  !
 ! D64   D(16,8,17,25)          59.4278         calculate D2E/DX2 analytically  !
 ! D65   D(16,8,17,26)         -60.3195         calculate D2E/DX2 analytically  !
 ! D66   D(4,9,18,33)          -60.9575         calculate D2E/DX2 analytically  !
 ! D67   D(4,9,18,34)          179.3571         calculate D2E/DX2 analytically  !
 ! D68   D(4,9,18,35)           59.8105         calculate D2E/DX2 analytically  !
 ! D69   D(19,9,18,33)          58.4999         calculate D2E/DX2 analytically  !
 ! D70   D(19,9,18,34)         -61.1854         calculate D2E/DX2 analytically  !
 ! D71   D(19,9,18,35)         179.268          calculate D2E/DX2 analytically  !
 ! D72   D(20,9,18,33)         177.1615         calculate D2E/DX2 analytically  !
 ! D73   D(20,9,18,34)          57.4762         calculate D2E/DX2 analytically  !
 ! D74   D(20,9,18,35)         -62.0704         calculate D2E/DX2 analytically  !
 ! D75   D(4,9,19,36)           61.0669         calculate D2E/DX2 analytically  !
 ! D76   D(4,9,19,37)          -59.7007         calculate D2E/DX2 analytically  !
 ! D77   D(4,9,19,38)         -179.2552         calculate D2E/DX2 analytically  !
 ! D78   D(18,9,19,36)         -58.3945         calculate D2E/DX2 analytically  !
 ! D79   D(18,9,19,37)        -179.1621         calculate D2E/DX2 analytically  !
 ! D80   D(18,9,19,38)          61.2835         calculate D2E/DX2 analytically  !
 ! D81   D(20,9,19,36)        -177.0544         calculate D2E/DX2 analytically  !
 ! D82   D(20,9,19,37)          62.178          calculate D2E/DX2 analytically  !
 ! D83   D(20,9,19,38)         -57.3764         calculate D2E/DX2 analytically  !
 ! D84   D(4,9,20,30)          -60.2159         calculate D2E/DX2 analytically  !
 ! D85   D(4,9,20,31)         -179.9612         calculate D2E/DX2 analytically  !
 ! D86   D(4,9,20,32)           60.2901         calculate D2E/DX2 analytically  !
 ! D87   D(18,9,20,30)          60.3323         calculate D2E/DX2 analytically  !
 ! D88   D(18,9,20,31)         -59.413          calculate D2E/DX2 analytically  !
 ! D89   D(18,9,20,32)        -179.1617         calculate D2E/DX2 analytically  !
 ! D90   D(19,9,20,30)         179.2418         calculate D2E/DX2 analytically  !
 ! D91   D(19,9,20,31)          59.4966         calculate D2E/DX2 analytically  !
 ! D92   D(19,9,20,32)         -60.2521         calculate D2E/DX2 analytically  !
 --------------------------------------------------------------------------------
 Trust Radius=3.00D-01 FncErr=1.00D-07 GrdErr=1.00D-07
 Number of steps in this run=      2 maximum allowed number of steps=      2.
 GradGradGradGradGradGradGradGradGradGradGradGradGradGradGradGradGradGrad

 Leave Link  103 at Tue May  8 13:03:26 2018, MaxMem=   268435456 cpu:         0.0
 (Enter /ihome/crc/build/g09/g09-D.01/TAR/g09/l202.exe)
                          Input orientation:                          
 ---------------------------------------------------------------------
 Center     Atomic      Atomic             Coordinates (Angstroms)
 Number     Number       Type             X           Y           Z
 ---------------------------------------------------------------------
      1          6           0       -3.899615    1.652199   -0.526237
      2          6           0       -4.956939    0.790581   -0.838348
      3          7           0       -4.804265   -0.538263   -0.830122
      4          6           0       -3.613411   -1.067212   -0.516370
      5          6           0       -2.517702   -0.263597   -0.194765
      6          6           0       -2.652601    1.125891   -0.195775
      7          1           0       -4.043459    2.729762   -0.540651
      8          6           0       -6.332336    1.355270   -1.203292
      9          6           0       -3.481264   -2.592667   -0.521149
     10          1           0       -1.558776   -0.711652    0.055889
     11          6           0       -1.493136    2.015157    0.166089
     12          1           0       -0.582514    1.708484   -0.358582
     13          1           0       -1.286297    1.957170    1.241033
     14          1           0       -1.700566    3.059893   -0.081591
     15          6           0       -6.198905    2.252480   -2.445319
     16          6           0       -6.864340    2.193067   -0.028303
     17          6           0       -7.333056    0.237878   -1.506226
     18          6           0       -3.064450   -3.070247    0.880107
     19          6           0       -2.403586   -3.005260   -1.537845
     20          6           0       -4.801584   -3.267359   -0.900105
     21          1           0       -5.530339    3.101083   -2.263481
     22          1           0       -7.180823    2.653078   -2.724669
     23          1           0       -5.806887    1.686211   -3.298168
     24          1           0       -7.004685   -0.380027   -2.348189
     25          1           0       -8.302499    0.681886   -1.761453
     26          1           0       -7.472892   -0.422716   -0.644491
     27          1           0       -6.206823    3.039742    0.197480
     28          1           0       -6.958011    1.583026    0.877686
     29          1           0       -7.855324    2.593983   -0.273071
     30          1           0       -5.600527   -3.014428   -0.195665
     31          1           0       -4.665660   -4.355279   -0.891394
     32          1           0       -5.134175   -2.969714   -1.899762
     33          1           0       -2.096510   -2.653760    1.179818
     34          1           0       -2.977509   -4.163408    0.892593
     35          1           0       -3.808163   -2.779146    1.631036
     36          1           0       -1.423143   -2.589024   -1.281544
     37          1           0       -2.665180   -2.665312   -2.546658
     38          1           0       -2.308682   -4.097592   -1.560279
 ---------------------------------------------------------------------
                    Distance matrix (angstroms):
                    1          2          3          4          5
     1  C    0.000000
     2  C    1.399191   0.000000
     3  N    2.389322   1.337611   0.000000
     4  C    2.734448   2.315196   1.340284   0.000000
     5  C    2.385336   2.734112   2.389035   1.396354   0.000000
     6  C    1.393287   2.415638   2.793109   2.415706   1.396021
     7  H    1.087217   2.164138   3.367878   3.821327   3.377539
     8  C    2.542578   1.530939   2.461651   3.705784   4.264891
     9  C    4.265434   3.704672   2.463000   1.531175   2.541563
    10  H    3.377305   3.821502   3.368721   2.162274   1.087713
    11  C    2.530255   3.808729   4.298367   3.802935   2.524415
    12  H    3.321811   4.495366   4.805559   4.112872   2.767831
    13  H    3.169492   4.377028   4.784659   4.201287   2.917136
    14  H    2.648609   4.040597   4.810402   4.569574   3.424340
    15  C    3.054497   2.502396   3.513137   4.628821   4.994687
    16  C    3.054517   2.502263   3.513828   4.629921   4.995615
    17  C    3.840469   2.529323   2.730256   4.064337   5.015879
    18  C    4.997680   4.630400   3.516075   2.502730   3.054762
    19  C    4.995336   4.627885   3.514286   2.502622   3.055094
    20  C    5.015514   4.061383   2.729995   2.529754   3.838777
    21  H    2.788646   2.774565   3.978258   4.909348   4.967559
    22  H    4.074456   3.460168   4.407039   5.607457   6.054098
    23  H    3.364885   2.752323   3.470560   4.486767   4.924591
    24  H    4.134116   2.800572   2.677949   3.915165   4.978333
    25  H    4.674682   3.472276   3.820181   5.157239   6.067316
    26  H    4.133712   2.799945   2.677570   3.915021   4.978101
    27  H    2.787876   2.773783   3.978096   4.909423   4.967446
    28  H    3.365943   2.752640   3.472044   4.489265   4.927120
    29  H    4.074149   3.460120   4.407974   5.608687   6.054924
    30  H    4.977930   3.912204   2.677305   2.800559   4.131692
    31  H    6.067121   5.154370   3.820023   3.472644   4.673422
    32  H    4.977227   3.911244   2.676738   2.801073   4.132314
    33  H    4.970220   4.911062   3.980844   2.774018   2.789222
    34  H    6.056785   5.608592   4.409814   3.460632   4.074592
    35  H    4.929403   4.490044   3.474345   2.753180   3.365535
    36  H    4.969042   4.909773   3.980125   2.774649   2.790477
    37  H    4.924108   4.484828   3.470810   2.752296   3.364727
    38  H    6.054784   5.606129   4.407934   3.460529   4.075271
                    6          7          8          9         10
     6  C    0.000000
     7  H    2.150774   0.000000
     8  C    3.822061   2.750869   0.000000
     9  C    3.823639   5.352073   4.917330   0.000000
    10  H    2.153219   4.286355   5.352063   2.750846   0.000000
    11  C    1.505357   2.741220   5.072328   5.065273   2.729824
    12  H    2.156660   3.613073   5.822263   5.189323   2.642334
    13  H    2.149937   3.372424   5.639106   5.350157   2.932818
    14  H    2.158651   2.410160   5.061348   5.942687   3.776712
    15  C    4.348094   2.915735   1.537993   5.879069   6.047555
    16  C    4.348064   2.916833   1.538028   5.881441   6.049256
    17  C    4.940901   4.238310   1.530286   4.880436   6.056742
    18  C    4.351404   6.051208   5.882588   1.537965   2.917081
    19  C    4.350812   6.047648   5.878880   1.537951   2.917932
    20  C    4.941139   6.055528   4.878917   1.530380   4.238086
    21  H    4.056867   2.305826   2.194325   6.297080   5.974089
    22  H    5.406699   3.823463   2.172285   6.786757   7.117606
    23  H    4.459632   3.435488   2.184978   5.606170   5.919957
    24  H    5.083434   4.659059   2.184971   4.544044   5.962171
    25  H    5.879611   4.880940   2.155581   5.958636   7.121971
    26  H    5.082788   4.659390   2.185032   4.544996   5.962448
    27  H    4.055856   2.306744   2.194393   6.298343   5.974725
    28  H    4.460699   3.438211   2.184905   5.610785   5.923904
    29  H    5.406440   3.823657   2.172375   6.789350   7.119126
    30  H    5.082568   5.961475   4.543690   2.185199   4.658520
    31  H    5.880434   7.120952   5.956968   2.155615   4.881198
    32  H    5.082889   5.959938   4.541602   2.185144   4.659066
    33  H    4.060450   5.977703   6.300298   2.194212   2.307414
    34  H    5.409879   7.120830   6.789949   2.172479   3.824591
    35  H    4.463392   5.926184   5.612331   2.184843   3.437348
    36  H    4.060918   5.975321   6.297917   2.194101   2.309037
    37  H    4.460945   5.918660   5.605154   2.184939   3.437175
    38  H    5.409706   7.117713   6.786084   2.172450   3.826088
                   11         12         13         14         15
    11  C    0.000000
    12  H    1.094788   0.000000
    13  H    1.096198   1.765198   0.000000
    14  H    1.093548   1.775689   1.771144   0.000000
    15  C    5.387025   6.016166   6.148994   5.145307   0.000000
    16  C    5.377664   6.309140   5.725507   5.236296   2.507649
    17  C    6.329299   7.003541   6.860517   6.458971   2.495359
    18  C    5.370306   5.525453   5.344812   6.353240   7.015319
    19  C    5.379302   5.189060   5.796223   6.277021   6.547655
    20  C    6.323573   6.546206   6.651122   7.093688   5.899900
    21  H    4.835396   5.481692   5.621570   4.407891   1.095524
    22  H    6.411958   7.073069   7.138384   6.097916   1.096667
    23  H    5.542358   5.994642   6.411981   5.394001   1.096216
    24  H    6.514266   7.040219   7.144576   6.715965   2.754779
    25  H    7.201420   7.913287   7.737465   7.215426   2.712848
    26  H    6.508283   7.218107   6.891518   6.764997   3.467377
    27  H    4.823858   5.806401   5.145147   4.514935   2.757577
    28  H    5.527926   6.495464   5.695643   5.544554   3.473727
    29  H    6.403541   7.327018   6.771275   6.175337   2.753000
    30  H    6.503710   6.892959   6.737467   7.219424   5.758413
    31  H    7.194834   7.329747   7.470900   8.026976   6.959023
    32  H    6.509519   6.706593   6.996066   7.172976   5.357480
    33  H    4.815650   4.867035   4.681972   5.864619   7.351357
    34  H    6.395767   6.463788   6.359487   7.399709   7.917238
    35  H    5.521844   5.873858   5.380018   6.439677   6.902868
    36  H    4.826906   4.475164   5.200962   5.781619   6.899452
    37  H    5.535294   5.315568   6.133128   6.307536   6.056580
    38  H    6.403995   6.175293   6.749278   7.333888   7.499369
                   16         17         18         19         20
    16  C    0.000000
    17  C    2.495339   0.000000
    18  C    6.554911   5.904175   0.000000
    19  C    7.014246   5.900731   2.507480   0.000000
    20  C    5.901801   4.366053   2.495124   2.495156   0.000000
    21  H    2.756823   3.467155   7.351740   6.898591   6.553391
    22  H    2.753572   2.709422   7.918042   7.499822   6.636369
    23  H    3.473778   2.763678   6.899481   6.057317   5.594569
    24  H    3.467330   1.094776   5.760610   5.358975   3.909896
    25  H    2.712154   1.096404   6.963727   6.960044   5.347416
    26  H    2.755422   1.094772   5.363598   5.758948   3.910655
    27  H    1.095521   3.467197   6.904524   7.349695   6.554305
    28  H    1.096240   2.762810   6.067353   6.901445   5.597942
    29  H    1.096674   2.710104   7.507716   7.916604   6.638813
    30  H    5.361272   3.911102   2.755374   3.467270   1.094769
    31  H    6.961319   5.346972   2.711714   2.712458   1.096412
    32  H    5.757616   3.908784   3.467210   2.754699   1.094771
    33  H    6.905324   6.557272   1.095535   2.757451   3.466989
    34  H    7.507348   6.640515   1.096683   2.752766   2.709966
    35  H    6.067663   5.600868   1.096241   3.473582   2.762592
    36  H    7.351574   6.555069   2.756483   1.095541   3.466915
    37  H    6.897747   5.594648   3.473630   1.096221   2.763661
    38  H    7.916651   6.636532   2.753562   1.096676   2.709183
                   21         22         23         24         25
    21  H    0.000000
    22  H    1.771299   0.000000
    23  H    1.774520   1.775228   0.000000
    24  H    3.781401   3.061452   2.570315   0.000000
    25  H    3.713410   2.464050   3.098103   1.776581   0.000000
    26  H    4.337257   3.724642   3.776924   1.767378   1.776512
    27  H    2.552983   3.104374   3.769821   4.337261   3.713322
    28  H    3.769572   3.764521   4.332839   3.776509   3.095926
    29  H    3.102327   2.543379   3.764486   3.724840   2.464013
    30  H    6.456025   6.404203   5.635966   3.680364   4.838913
    31  H    7.630703   7.668377   6.602618   4.836932   6.273486
    32  H    6.094572   6.040284   4.907720   3.225890   4.836485
    33  H    7.534302   8.322126   7.256349   6.458086   7.634913
    34  H    8.321693   8.787315   7.732134   6.405839   7.673092
    35  H    7.260182   7.736670   6.944881   5.639836   6.609597
    36  H    7.085943   7.919162   6.446830   6.096803   7.632477
    37  H    6.445203   6.979111   5.419487   4.908485   6.603003
    38  H    7.917985   8.406254   6.979260   6.040987   7.668749
                   26         27         28         29         30
    26  H    0.000000
    27  H    3.781596   0.000000
    28  H    2.570044   1.774538   0.000000
    29  H    3.063443   1.771349   1.775232   0.000000
    30  H    3.228648   6.097141   4.912375   6.045194   0.000000
    31  H    4.838033   7.631983   6.606662   7.671279   1.776484
    32  H    3.678655   6.454654   5.636314   6.403554   1.767323
    33  H    6.100094   7.090530   6.455682   7.925505   3.781556
    34  H    6.046807   7.924457   6.990430   8.415116   3.063443
    35  H    4.915387   6.455084   5.433012   6.991113   2.569974
    36  H    6.457414   7.533533   7.259686   8.321871   4.337123
    37  H    5.635741   7.254045   6.942831   7.730911   3.776944
    38  H    6.404096   8.320261   7.734943   8.786314   3.724467
                   31         32         33         34         35
    31  H    0.000000
    32  H    1.776543   0.000000
    33  H    3.712899   4.337171   0.000000
    34  H    2.463590   3.724696   1.771354   0.000000
    35  H    3.095505   3.776396   1.774564   1.775237   0.000000
    36  H    3.712922   3.781386   2.552630   3.101872   3.769296
    37  H    3.098033   2.570423   3.769634   3.764344   4.332724
    38  H    2.463565   3.061171   3.104480   2.543273   3.764470
                   36         37         38
    36  H    0.000000
    37  H    1.774539   0.000000
    38  H    1.771341   1.775235   0.000000
 Stoichiometry    C14H23N
 Framework group  C1[X(C14H23N)]
 Deg. of freedom   108
 Full point group                 C1      NOp   1
 RotChk:  IX=0 Diff= 1.52D-15
 Largest Abelian subgroup         C1      NOp   1
 Largest concise Abelian subgroup C1      NOp   1
                         Standard orientation:                         
 ---------------------------------------------------------------------
 Center     Atomic      Atomic             Coordinates (Angstroms)
 Number     Number       Type             X           Y           Z
 ---------------------------------------------------------------------
      1          6           0       -1.191983    1.455554   -0.006741
      2          6           0       -1.157850    0.056791   -0.001034
      3          7           0       -0.001932   -0.616297    0.001805
      4          6           0        1.157346    0.056332   -0.000619
      5          6           0        1.193351    1.452212   -0.005898
      6          6           0        0.000099    2.176793   -0.008178
      7          1           0       -2.142030    1.984168   -0.011135
      8          6           0       -2.460044   -0.748232    0.000534
      9          6           0        2.457284   -0.752777    0.000486
     10          1           0        2.144323    1.980191   -0.009172
     11          6           0        0.009990    3.682052    0.005939
     12          1           0        0.711761    4.078515   -0.734935
     13          1           0        0.325943    4.054253    0.987412
     14          1           0       -0.983043    4.088439   -0.205207
     15          6           0       -3.275001   -0.396854   -1.255571
     16          6           0       -3.277793   -0.386972    1.252057
     17          6           0       -2.186566   -2.253870    0.006814
     18          6           0        3.277114   -0.394113    1.251316
     19          6           0        3.272650   -0.404401   -1.256139
     20          6           0        2.179486   -2.257718    0.007196
     21          1           0       -3.542471    0.665181   -1.282305
     22          1           0       -4.205232   -0.977424   -1.272500
     23          1           0       -2.711605   -0.629610   -2.166669
     24          1           0       -1.617177   -2.563850   -0.875368
     25          1           0       -3.141031   -2.793403    0.008609
     26          1           0       -1.618006   -2.556721    0.891996
     27          1           0       -3.544023    0.675545    1.270656
     28          1           0       -2.716844   -0.613979    2.166138
     29          1           0       -4.208737   -0.966355    1.270853
     30          1           0        1.610641   -2.558920    0.892753
     31          1           0        3.132452   -2.799912    0.008497
     32          1           0        1.608712   -2.566361   -0.874553
     33          1           0        3.546503    0.667627    1.269588
     34          1           0        4.206374   -0.976230    1.269508
     35          1           0        2.716165   -0.619370    2.165832
     36          1           0        3.543467    0.656799   -1.283017
     37          1           0        2.707879   -0.635335   -2.166855
     38          1           0        4.201015   -0.987948   -1.273732
 ---------------------------------------------------------------------
 Rotational constants (GHZ):      0.7915310      0.4410894      0.3239874
 Leave Link  202 at Tue May  8 13:03:26 2018, MaxMem=   268435456 cpu:         0.0
 (Enter /ihome/crc/build/g09/g09-D.01/TAR/g09/l301.exe)
 Standard basis: 6-311+G(d,p) (5D, 7F)
 Ernie: Thresh=  0.10000D-02 Tol=  0.10000D-05 Strict=F.
 There are   483 symmetry adapted cartesian basis functions of A   symmetry.
 There are   468 symmetry adapted basis functions of A   symmetry.
   468 basis functions,   724 primitive gaussians,   483 cartesian basis functions
    57 alpha electrons       57 beta electrons
       nuclear repulsion energy      1043.8631549141 Hartrees.
 IExCor= 4336 DFT=T Ex+Corr=M062X ExCW=0 ScaHFX=  0.540000
 ScaDFX=  1.000000  1.000000  1.000000  1.000000 ScalE2=  1.000000  1.000000
 IRadAn=      0 IRanWt=     -1 IRanGd=            0 ICorTp=0 IEmpDi=  4
 NAtoms=   38 NActive=   38 NUniq=   38 SFac= 1.00D+00 NAtFMM=   60 NAOKFM=F Big=F
 Integral buffers will be    131072 words long.
 Raffenetti 2 integral format.
 Two-electron integral symmetry is turned on.
 Force inversion solution in PCM.
 ------------------------------------------------------------------------------
 Polarizable Continuum Model (PCM)
 =================================
 Model                : PCM (using non-symmetric T matrix).
 Atomic radii         : SMD-Coulomb.
 Polarization charges : Total charges.
 Charge compensation  : None.
 Solution method      : Matrix inversion.
 Cavity type          : VdW (van der Waals Surface) (Alpha=1.000).
 Cavity algorithm     : GePol (No added spheres)
                        Default sphere list used, NSphG=   38.
                        Lebedev-Laikov grids with approx.  5.0 points / Ang**2.
                        Smoothing algorithm: Karplus/York (Gamma=1.0000).
                        Polarization charges: spherical gaussians, with
                                              point-specific exponents (IZeta= 3).
                        Self-potential: point-specific (ISelfS= 7).
                        Self-field    : sphere-specific E.n sum rule (ISelfD= 2).
 1st derivatives      : Analytical E(r).r(x)/FMM algorithm (CHGder, D1EAlg=3).
                        Cavity 1st derivative terms included.
 2nd derivatives      : Analytical E(r).r(xy)/FMM algorithm (CHGder, D2EAlg=3).
                        Cavity 2nd derivative terms included.
 Solvent              : Chloroform, Eps=   4.711300 Eps(inf)=   2.090627
 ------------------------------------------------------------------------------
 GePol: Number of generator spheres                  =      38
 GePol: Total number of spheres                      =      38
 GePol: Number of exposed spheres                    =      38 (100.00%)
 GePol: Number of points                             =    2558
 GePol: Average weight of points                     =       0.11
 GePol: Minimum weight of points                     =   0.45D-09
 GePol: Maximum weight of points                     =    0.17992
 GePol: Number of points with low weight             =     172
 GePol: Fraction of low-weight points (<1% of avg)   =       6.72%
 GePol: Cavity surface area                          =    276.067 Ang**2
 GePol: Cavity volume                                =    246.257 Ang**3
 ------------------------------------------------------------------------------
 Atomic radii for non-electrostatic terms: SMD-CDS.
 ------------------------------------------------------------------------------
 PCM non-electrostatic energy =        -0.0082182998 Hartrees.
 Nuclear repulsion after PCM non-electrostatic terms =     1043.8549366143 Hartrees.
 Leave Link  301 at Tue May  8 13:03:26 2018, MaxMem=   268435456 cpu:         0.2
 (Enter /ihome/crc/build/g09/g09-D.01/TAR/g09/l302.exe)
 NPDir=0 NMtPBC=     1 NCelOv=     1 NCel=       1 NClECP=     1 NCelD=      1
         NCelK=      1 NCelE2=     1 NClLst=     1 CellRange=     0.0.
 One-electron integrals computed using PRISM.
 NBasis=   468 RedAO= T EigKep=  1.76D-06  NBF=   468
 NBsUse=   466 1.00D-06 EigRej=  8.52D-07 NBFU=   466
 Precomputing XC quadrature grid using
 IXCGrd= 4 IRadAn=           0 IRanWt=          -1 IRanGd=           0 AccXCQ= 0.00D+00.
 Generated NRdTot=       0 NPtTot=           0 NUsed=           0 NTot=          32
 NSgBfM=   482   482   482   482   482 MxSgAt=    38 MxSgA2=    38.
 Leave Link  302 at Tue May  8 13:03:27 2018, MaxMem=   268435456 cpu:         2.2
 (Enter /ihome/crc/build/g09/g09-D.01/TAR/g09/l303.exe)
 DipDrv:  MaxL=1.
 Leave Link  303 at Tue May  8 13:03:27 2018, MaxMem=   268435456 cpu:         0.2
 (Enter /ihome/crc/build/g09/g09-D.01/TAR/g09/l401.exe)
 ExpMin= 4.38D-02 ExpMax= 6.29D+03 ExpMxC= 9.49D+02 IAcc=2 IRadAn=         4 AccDes= 0.00D+00
 Harris functional with IExCor= 1009 and IRadAn=       4 diagonalized for initial guess.
 HarFok:  IExCor= 1009 AccDes= 0.00D+00 IRadAn=         4 IDoV= 1 UseB2=F ITyADJ=14
 ICtDFT=  3500011 ScaDFX=  1.000000  1.000000  1.000000  1.000000
 FoFCou: FMM=F IPFlag=           0 FMFlag=      100000 FMFlg1=           0
         NFxFlg=           0 DoJE=T BraDBF=F KetDBF=T FulRan=T
         wScrn=  0.000000 ICntrl=     500 IOpCl=  0 I1Cent=   200000004 NGrid=           0
         NMat0=    1 NMatS0=      1 NMatT0=    0 NMatD0=    1 NMtDS0=    0 NMtDT0=    0
 Petite list used in FoFCou.
 Harris En= -601.842849014231    
 JPrj=0 DoOrth=F DoCkMO=F.
 Leave Link  401 at Tue May  8 13:03:30 2018, MaxMem=   268435456 cpu:        13.6
 (Enter /ihome/crc/build/g09/g09-D.01/TAR/g09/l502.exe)
 Closed shell SCF:
 Using DIIS extrapolation, IDIIS=  1040.
 Integral symmetry usage will be decided dynamically.
 IVT=      724939 IEndB=      724939 NGot=   268435456 MDV=   267960930
 LenX=   267960930 LenY=   267727158
 Requested convergence on RMS density matrix=1.00D-08 within 128 cycles.
 Requested convergence on MAX density matrix=1.00D-06.
 Requested convergence on             energy=1.00D-06.
 No special actions if energy rises.
 Fock matrices will be formed incrementally for  20 cycles.

 Cycle   1  Pass 1  IDiag  1:
 FoFJK:  IHMeth= 1 ICntrl=       0 DoSepK=F KAlg= 0 I1Cent=   0 FoldK=F
 IRaf= 830000000 NMat=   1 IRICut=       1 DoRegI=T DoRafI=F ISym2E= 0.
 FoFCou: FMM=F IPFlag=           0 FMFlag=      100000 FMFlg1=           0
         NFxFlg=           0 DoJE=F BraDBF=F KetDBF=F FulRan=T
         wScrn=  0.000000 ICntrl=       0 IOpCl=  0 I1Cent=           0 NGrid=           0
         NMat0=    1 NMatS0=      1 NMatT0=    0 NMatD0=    1 NMtDS0=    0 NMtDT0=    0
 Symmetry not used in FoFCou.
 Inv3:  Mode=1 IEnd=    19630092.
 Iteration    1 A*A^-1 deviation from unit magnitude is 7.55D-15 for    703.
 Iteration    1 A*A^-1 deviation from orthogonality  is 6.88D-15 for   1911    683.
 Iteration    1 A^-1*A deviation from unit magnitude is 7.77D-15 for   2007.
 Iteration    1 A^-1*A deviation from orthogonality  is 4.72D-13 for   2281   2256.
 E= -601.468459848338    
 DIIS: error= 4.30D-02 at cycle   1 NSaved=   1.
 NSaved= 1 IEnMin= 1 EnMin= -601.468459848338     IErMin= 1 ErrMin= 4.30D-02
 ErrMax= 4.30D-02  0.00D+00 EMaxC= 1.00D-01 BMatC= 6.04D-01 BMatP= 6.04D-01
 IDIUse=3 WtCom= 5.70D-01 WtEn= 4.30D-01
 Coeff-Com:  0.100D+01
 Coeff-En:   0.100D+01
 Coeff:      0.100D+01
 Gap=     0.310 Goal=   None    Shift=    0.000
 GapD=    0.310 DampG=1.000 DampE=0.500 DampFc=0.5000 IDamp=-1.
 Damping current iteration by 5.00D-01
 RMSDP=7.22D-03 MaxDP=3.88D-01              OVMax= 1.54D-01

 Cycle   2  Pass 1  IDiag  1:
 RMSU=  3.58D-03    CP:  9.80D-01
 E= -601.753143035407     Delta-E=       -0.284683187070 Rises=F Damp=T
 DIIS: error= 7.96D-03 at cycle   2 NSaved=   2.
 NSaved= 2 IEnMin= 2 EnMin= -601.753143035407     IErMin= 2 ErrMin= 7.96D-03
 ErrMax= 7.96D-03  0.00D+00 EMaxC= 1.00D-01 BMatC= 3.56D-02 BMatP= 6.04D-01
 IDIUse=3 WtCom= 9.20D-01 WtEn= 7.96D-02
 Coeff-Com: -0.147D+00 0.115D+01
 Coeff-En:   0.000D+00 0.100D+01
 Coeff:     -0.136D+00 0.114D+01
 Gap=     0.313 Goal=   None    Shift=    0.000
 RMSDP=3.86D-03 MaxDP=2.66D-01 DE=-2.85D-01 OVMax= 8.43D-02

 Cycle   3  Pass 1  IDiag  1:
 RMSU=  3.25D-03    CP:  8.85D-01  9.43D-01
 E= -602.004718884701     Delta-E=       -0.251575849294 Rises=F Damp=F
 DIIS: error= 3.46D-03 at cycle   3 NSaved=   3.
 NSaved= 3 IEnMin= 3 EnMin= -602.004718884701     IErMin= 3 ErrMin= 3.46D-03
 ErrMax= 3.46D-03  0.00D+00 EMaxC= 1.00D-01 BMatC= 3.04D-03 BMatP= 3.56D-02
 IDIUse=3 WtCom= 9.65D-01 WtEn= 3.46D-02
 Coeff-Com: -0.603D-01 0.229D+00 0.832D+00
 Coeff-En:   0.000D+00 0.000D+00 0.100D+01
 Coeff:     -0.582D-01 0.221D+00 0.837D+00
 Gap=     0.311 Goal=   None    Shift=    0.000
 RMSDP=9.24D-04 MaxDP=1.00D-01 DE=-2.52D-01 OVMax= 1.12D-02

 Cycle   4  Pass 1  IDiag  1:
 RMSU=  6.37D-04    CP:  8.57D-01  9.02D-01  9.34D-01
 E= -602.006928951617     Delta-E=       -0.002210066916 Rises=F Damp=F
 DIIS: error= 1.77D-03 at cycle   4 NSaved=   4.
 NSaved= 4 IEnMin= 4 EnMin= -602.006928951617     IErMin= 4 ErrMin= 1.77D-03
 ErrMax= 1.77D-03  0.00D+00 EMaxC= 1.00D-01 BMatC= 7.89D-04 BMatP= 3.04D-03
 IDIUse=3 WtCom= 9.82D-01 WtEn= 1.77D-02
 Coeff-Com: -0.192D-01 0.503D-01 0.382D+00 0.587D+00
 Coeff-En:   0.000D+00 0.000D+00 0.130D+00 0.870D+00
 Coeff:     -0.188D-01 0.494D-01 0.377D+00 0.592D+00
 Gap=     0.306 Goal=   None    Shift=    0.000
 RMSDP=3.42D-04 MaxDP=3.38D-02 DE=-2.21D-03 OVMax= 6.85D-03

 Cycle   5  Pass 1  IDiag  1:
 RMSU=  2.15D-04    CP:  8.53D-01  8.97D-01  9.76D-01  6.81D-01
 E= -602.007668884358     Delta-E=       -0.000739932741 Rises=F Damp=F
 DIIS: error= 4.13D-04 at cycle   5 NSaved=   5.
 NSaved= 5 IEnMin= 5 EnMin= -602.007668884358     IErMin= 5 ErrMin= 4.13D-04
 ErrMax= 4.13D-04  0.00D+00 EMaxC= 1.00D-01 BMatC= 2.53D-05 BMatP= 7.89D-04
 IDIUse=3 WtCom= 9.96D-01 WtEn= 4.13D-03
 Coeff-Com: -0.369D-02 0.765D-02 0.101D+00 0.223D+00 0.672D+00
 Coeff-En:   0.000D+00 0.000D+00 0.000D+00 0.000D+00 0.100D+01
 Coeff:     -0.367D-02 0.762D-02 0.100D+00 0.222D+00 0.674D+00
 Gap=     0.306 Goal=   None    Shift=    0.000
 RMSDP=5.33D-05 MaxDP=3.72D-03 DE=-7.40D-04 OVMax= 2.10D-03

 Cycle   6  Pass 1  IDiag  1:
 RMSU=  3.73D-05    CP:  8.53D-01  8.88D-01  9.78D-01  6.96D-01  9.34D-01
 E= -602.007687778502     Delta-E=       -0.000018894144 Rises=F Damp=F
 DIIS: error= 2.01D-04 at cycle   6 NSaved=   6.
 NSaved= 6 IEnMin= 6 EnMin= -602.007687778502     IErMin= 6 ErrMin= 2.01D-04
 ErrMax= 2.01D-04  0.00D+00 EMaxC= 1.00D-01 BMatC= 4.91D-06 BMatP= 2.53D-05
 IDIUse=3 WtCom= 9.98D-01 WtEn= 2.01D-03
 Coeff-Com:  0.322D-03-0.173D-02 0.964D-02 0.518D-01 0.344D+00 0.596D+00
 Coeff-En:   0.000D+00 0.000D+00 0.000D+00 0.000D+00 0.778D-01 0.922D+00
 Coeff:      0.322D-03-0.173D-02 0.962D-02 0.517D-01 0.343D+00 0.597D+00
 Gap=     0.306 Goal=   None    Shift=    0.000
 RMSDP=3.13D-05 MaxDP=3.54D-03 DE=-1.89D-05 OVMax= 8.48D-04

 Cycle   7  Pass 1  IDiag  1:
 RMSU=  2.33D-05    CP:  8.53D-01  8.87D-01  9.79D-01  7.19D-01  8.99D-01
                    CP:  8.40D-01
 E= -602.007692334319     Delta-E=       -0.000004555817 Rises=F Damp=F
 DIIS: error= 2.87D-05 at cycle   7 NSaved=   7.
 NSaved= 7 IEnMin= 7 EnMin= -602.007692334319     IErMin= 7 ErrMin= 2.87D-05
 ErrMax= 2.87D-05  0.00D+00 EMaxC= 1.00D-01 BMatC= 1.94D-07 BMatP= 4.91D-06
 IDIUse=1 WtCom= 1.00D+00 WtEn= 0.00D+00
 Coeff-Com:  0.546D-03-0.138D-02-0.946D-02-0.115D-01 0.132D-01 0.168D+00
 Coeff-Com:  0.841D+00
 Coeff:      0.546D-03-0.138D-02-0.946D-02-0.115D-01 0.132D-01 0.168D+00
 Coeff:      0.841D+00
 Gap=     0.306 Goal=   None    Shift=    0.000
 RMSDP=1.11D-05 MaxDP=1.02D-03 DE=-4.56D-06 OVMax= 1.44D-04

 Cycle   8  Pass 1  IDiag  1:
 RMSU=  3.70D-06    CP:  8.53D-01  8.85D-01  9.81D-01  7.14D-01  9.20D-01
                    CP:  9.46D-01  8.99D-01
 E= -602.007692529205     Delta-E=       -0.000000194886 Rises=F Damp=F
 DIIS: error= 6.98D-06 at cycle   8 NSaved=   8.
 NSaved= 8 IEnMin= 8 EnMin= -602.007692529205     IErMin= 8 ErrMin= 6.98D-06
 ErrMax= 6.98D-06  0.00D+00 EMaxC= 1.00D-01 BMatC= 1.96D-08 BMatP= 1.94D-07
 IDIUse=1 WtCom= 1.00D+00 WtEn= 0.00D+00
 Coeff-Com:  0.183D-03-0.445D-03-0.440D-02-0.806D-02-0.191D-01 0.251D-01
 Coeff-Com:  0.316D+00 0.690D+00
 Coeff:      0.183D-03-0.445D-03-0.440D-02-0.806D-02-0.191D-01 0.251D-01
 Coeff:      0.316D+00 0.690D+00
 Gap=     0.306 Goal=   None    Shift=    0.000
 RMSDP=1.42D-06 MaxDP=1.28D-04 DE=-1.95D-07 OVMax= 3.07D-05

 Cycle   9  Pass 1  IDiag  1:
 RMSU=  9.37D-07    CP:  8.53D-01  8.85D-01  9.81D-01  7.15D-01  9.20D-01
                    CP:  9.50D-01  9.11D-01  9.84D-01
 E= -602.007692549520     Delta-E=       -0.000000020315 Rises=F Damp=F
 DIIS: error= 2.60D-06 at cycle   9 NSaved=   9.
 NSaved= 9 IEnMin= 9 EnMin= -602.007692549520     IErMin= 9 ErrMin= 2.60D-06
 ErrMax= 2.60D-06  0.00D+00 EMaxC= 1.00D-01 BMatC= 9.78D-10 BMatP= 1.96D-08
 IDIUse=1 WtCom= 1.00D+00 WtEn= 0.00D+00
 Coeff-Com: -0.232D-05 0.400D-05-0.462D-03-0.128D-02-0.574D-02-0.308D-02
 Coeff-Com:  0.214D-01 0.190D+00 0.799D+00
 Coeff:     -0.232D-05 0.400D-05-0.462D-03-0.128D-02-0.574D-02-0.308D-02
 Coeff:      0.214D-01 0.190D+00 0.799D+00
 Gap=     0.306 Goal=   None    Shift=    0.000
 RMSDP=6.69D-07 MaxDP=6.33D-05 DE=-2.03D-08 OVMax= 1.76D-05

 Cycle  10  Pass 1  IDiag  1:
 RMSU=  2.00D-07    CP:  8.53D-01  8.85D-01  9.81D-01  7.15D-01  9.19D-01
                    CP:  9.53D-01  9.13D-01  1.02D+00  1.13D+00
 E= -602.007692550672     Delta-E=       -0.000000001152 Rises=F Damp=F
 DIIS: error= 5.07D-07 at cycle  10 NSaved=  10.
 NSaved=10 IEnMin=10 EnMin= -602.007692550672     IErMin=10 ErrMin= 5.07D-07
 ErrMax= 5.07D-07  0.00D+00 EMaxC= 1.00D-01 BMatC= 1.07D-10 BMatP= 9.78D-10
 IDIUse=1 WtCom= 1.00D+00 WtEn= 0.00D+00
 Coeff-Com: -0.151D-04 0.352D-04 0.164D-03 0.154D-03-0.608D-03-0.244D-02
 Coeff-Com: -0.178D-01 0.124D-01 0.272D+00 0.736D+00
 Coeff:     -0.151D-04 0.352D-04 0.164D-03 0.154D-03-0.608D-03-0.244D-02
 Coeff:     -0.178D-01 0.124D-01 0.272D+00 0.736D+00
 Gap=     0.306 Goal=   None    Shift=    0.000
 RMSDP=1.30D-07 MaxDP=1.49D-05 DE=-1.15D-09 OVMax= 3.53D-06

 Cycle  11  Pass 1  IDiag  1:
 RMSU=  5.66D-08    CP:  8.53D-01  8.85D-01  9.81D-01  7.15D-01  9.19D-01
                    CP:  9.53D-01  9.11D-01  1.02D+00  1.21D+00  9.92D-01
 E= -602.007692550654     Delta-E=        0.000000000018 Rises=F Damp=F
 DIIS: error= 3.59D-07 at cycle  11 NSaved=  11.
 NSaved=11 IEnMin=10 EnMin= -602.007692550672     IErMin=11 ErrMin= 3.59D-07
 ErrMax= 3.59D-07  0.00D+00 EMaxC= 1.00D-01 BMatC= 1.02D-11 BMatP= 1.07D-10
 IDIUse=1 WtCom= 1.00D+00 WtEn= 0.00D+00
 Coeff-Com: -0.455D-05 0.109D-04 0.939D-04 0.158D-03 0.236D-03-0.313D-03
 Coeff-Com: -0.819D-02-0.121D-01 0.328D-01 0.234D+00 0.753D+00
 Coeff:     -0.455D-05 0.109D-04 0.939D-04 0.158D-03 0.236D-03-0.313D-03
 Coeff:     -0.819D-02-0.121D-01 0.328D-01 0.234D+00 0.753D+00
 Gap=     0.306 Goal=   None    Shift=    0.000
 RMSDP=6.54D-08 MaxDP=7.79D-06 DE= 1.80D-11 OVMax= 2.88D-06

 Cycle  12  Pass 1  IDiag  1:
 RMSU=  2.36D-08    CP:  8.53D-01  8.85D-01  9.81D-01  7.15D-01  9.19D-01
                    CP:  9.53D-01  9.09D-01  1.03D+00  1.22D+00  1.02D+00
                    CP:  1.03D+00
 E= -602.007692550749     Delta-E=       -0.000000000095 Rises=F Damp=F
 DIIS: error= 1.47D-07 at cycle  12 NSaved=  12.
 NSaved=12 IEnMin=12 EnMin= -602.007692550749     IErMin=12 ErrMin= 1.47D-07
 ErrMax= 1.47D-07  0.00D+00 EMaxC= 1.00D-01 BMatC= 2.04D-12 BMatP= 1.02D-11
 IDIUse=1 WtCom= 1.00D+00 WtEn= 0.00D+00
 Coeff-Com:  0.101D-05-0.194D-05 0.248D-05 0.139D-04 0.822D-04 0.272D-03
 Coeff-Com:  0.958D-04-0.457D-02-0.200D-01-0.643D-01 0.228D+00 0.861D+00
 Coeff:      0.101D-05-0.194D-05 0.248D-05 0.139D-04 0.822D-04 0.272D-03
 Coeff:      0.958D-04-0.457D-02-0.200D-01-0.643D-01 0.228D+00 0.861D+00
 Gap=     0.306 Goal=   None    Shift=    0.000
 RMSDP=1.60D-08 MaxDP=1.83D-06 DE=-9.55D-11 OVMax= 1.16D-06

 Cycle  13  Pass 1  IDiag  1:
 RMSU=  9.22D-09    CP:  8.53D-01  8.85D-01  9.81D-01  7.15D-01  9.19D-01
                    CP:  9.53D-01  9.09D-01  1.03D+00  1.22D+00  1.01D+00
                    CP:  1.17D+00  1.01D+00
 E= -602.007692550720     Delta-E=        0.000000000030 Rises=F Damp=F
 DIIS: error= 6.88D-08 at cycle  13 NSaved=  13.
 NSaved=13 IEnMin=12 EnMin= -602.007692550749     IErMin=13 ErrMin= 6.88D-08
 ErrMax= 6.88D-08  0.00D+00 EMaxC= 1.00D-01 BMatC= 4.38D-13 BMatP= 2.04D-12
 IDIUse=1 WtCom= 1.00D+00 WtEn= 0.00D+00
 Coeff-Com:  0.120D-05-0.260D-05-0.106D-04-0.122D-04 0.162D-04 0.206D-03
 Coeff-Com:  0.112D-02-0.122D-02-0.153D-01-0.732D-01 0.351D-01 0.456D+00
 Coeff-Com:  0.598D+00
 Coeff:      0.120D-05-0.260D-05-0.106D-04-0.122D-04 0.162D-04 0.206D-03
 Coeff:      0.112D-02-0.122D-02-0.153D-01-0.732D-01 0.351D-01 0.456D+00
 Coeff:      0.598D+00
 Gap=     0.306 Goal=   None    Shift=    0.000
 RMSDP=5.64D-09 MaxDP=5.00D-07 DE= 2.96D-11 OVMax= 4.54D-07

 Error on total polarization charges =  0.05525
 SCF Done:  E(RM062X) =  -602.007692551     A.U. after   13 cycles
            NFock= 13  Conv=0.56D-08     -V/T= 2.0048
 KE= 5.991383396515D+02 PE=-3.483294516473D+03 EE= 1.238293547656D+03
 SMD-CDS (non-electrostatic) energy       (kcal/mol) =      -5.16
 (included in total energy above)
 Leave Link  502 at Tue May  8 13:09:33 2018, MaxMem=   268435456 cpu:      1451.4
 (Enter /ihome/crc/build/g09/g09-D.01/TAR/g09/l801.exe)
 DoSCS=F DFT=T ScalE2(SS,OS)=  1.000000  1.000000
 Range of M.O.s used for correlation:     1   466
 NBasis=   468 NAE=    57 NBE=    57 NFC=     0 NFV=     0
 NROrb=    466 NOA=    57 NOB=    57 NVA=   409 NVB=   409

 **** Warning!!: The largest alpha MO coefficient is  0.14583979D+03

 Leave Link  801 at Tue May  8 13:09:33 2018, MaxMem=   268435456 cpu:         0.1
 (Enter /ihome/crc/build/g09/g09-D.01/TAR/g09/l1101.exe)
 Using compressed storage, NAtomX=    38.
 Will process     39 centers per pass.
 Leave Link 1101 at Tue May  8 13:09:34 2018, MaxMem=   268435456 cpu:         2.4
 (Enter /ihome/crc/build/g09/g09-D.01/TAR/g09/l1102.exe)
 Symmetrizing basis deriv contribution to polar:
 IMax=3 JMax=2 DiffMx= 0.00D+00
 Leave Link 1102 at Tue May  8 13:09:34 2018, MaxMem=   268435456 cpu:         0.2
 (Enter /ihome/crc/build/g09/g09-D.01/TAR/g09/l1110.exe)
 Forming Gx(P) for the SCF density, NAtomX=    38.
 Integral derivatives from FoFJK, PRISM(SPDF).
 Do as many integral derivatives as possible in FoFJK.
 G2DrvN: MDV=     268435048.
 G2DrvN: will do    39 centers at a time, making    1 passes.
 Calling FoFCou, ICntrl=  3107 FMM=F I1Cent=   0 AccDes= 0.00D+00.
 FoFJK:  IHMeth= 1 ICntrl=    3107 DoSepK=F KAlg= 0 I1Cent=   0 FoldK=F
 IRaf=         0 NMat=   1 IRICut=       1 DoRegI=T DoRafI=F ISym2E= 0.
 FoFCou: FMM=F IPFlag=           0 FMFlag=      100000 FMFlg1=           0
         NFxFlg=           0 DoJE=F BraDBF=F KetDBF=F FulRan=T
         wScrn=  0.000000 ICntrl=    3107 IOpCl=  0 I1Cent=           0 NGrid=           0
         NMat0=    1 NMatS0=      1 NMatT0=    0 NMatD0=    1 NMtDS0=    0 NMtDT0=    0
 Symmetry not used in FoFCou.
 NEqPCM:  Using equilibrium solvation (IEInf=0, Eps=   4.7113, EpsInf=   2.0906)
 G2PCM: DoFxE=T DoFxN=T DoGrad=T DoDP/DQ/DG/TGxP=FFFF NFrqRd=   0 IEInf=0 SqF1=F DoCFld=F IF1Alg=4.
 GePol: Maximum number of non-zero 1st derivatives   =     248
 End of G2Drv F.D. properties file   721 does not exist.
 End of G2Drv F.D. properties file   722 does not exist.
 End of G2Drv F.D. properties file   788 does not exist.
 Leave Link 1110 at Tue May  8 13:24:34 2018, MaxMem=   268435456 cpu:      3601.1
 (Enter /ihome/crc/build/g09/g09-D.01/TAR/g09/l1002.exe)
 Minotr:  Closed shell wavefunction.
          IDoAtm=11111111111111111111111111111111111111
 NEqPCM:  Using equilibrium solvation (IEInf=0, Eps=   4.7113, EpsInf=   2.0906)
          Direct CPHF calculation.
          Differentiating once with respect to electric field.
                with respect to dipole field.
          Differentiating once with respect to nuclear coordinates.
          Requested convergence is 1.0D-08 RMS, and 1.0D-07 maximum.
          Secondary convergence is 1.0D-12 RMS, and 1.0D-12 maximum.
          NewPWx=T KeepS1=F KeepF1=F KeepIn=T MapXYZ=F SortEE=F KeepMc=T.
          MDV=     268434606 using IRadAn=       2.
 Generate precomputed XC quadrature information.
          Solving linear equations simultaneously, MaxMat=       0.
 FoFJK:  IHMeth= 1 ICntrl=       0 DoSepK=F KAlg= 0 I1Cent=   0 FoldK=F
 IRaf= 830000000 NMat= 117 IRICut=     292 DoRegI=T DoRafI=T ISym2E= 2.
 FoFCou: FMM=F IPFlag=           0 FMFlag=      100000 FMFlg1=           0
         NFxFlg=           0 DoJE=F BraDBF=F KetDBF=F FulRan=T
         wScrn=  0.000000 ICntrl=       0 IOpCl=  0 I1Cent=           0 NGrid=           0
         NMat0=  117 NMatS0=    117 NMatT0=    0 NMatD0=  117 NMtDS0=    0 NMtDT0=    0
 Integrals replicated using symmetry in FoFCou.
          There are   117 degrees of freedom in the 1st order CPHF.  IDoFFX=6 NUNeed=     3.
    114 vectors produced by pass  0 Test12= 2.33D-14 1.00D-09 XBig12= 1.08D+02 3.94D+00.
 AX will form   114 AO Fock derivatives at one time.
    114 vectors produced by pass  1 Test12= 2.33D-14 1.00D-09 XBig12= 1.11D+01 4.55D-01.
    114 vectors produced by pass  2 Test12= 2.33D-14 1.00D-09 XBig12= 1.72D-01 6.56D-02.
    114 vectors produced by pass  3 Test12= 2.33D-14 1.00D-09 XBig12= 1.10D-03 3.26D-03.
    114 vectors produced by pass  4 Test12= 2.33D-14 1.00D-09 XBig12= 5.46D-06 1.81D-04.
    114 vectors produced by pass  5 Test12= 2.33D-14 1.00D-09 XBig12= 2.33D-08 1.22D-05.
     57 vectors produced by pass  6 Test12= 2.33D-14 1.00D-09 XBig12= 8.48D-11 7.00D-07.
     25 vectors produced by pass  7 Test12= 2.33D-14 1.00D-09 XBig12= 1.35D-12 2.11D-07.
     25 vectors produced by pass  8 Test12= 2.33D-14 1.00D-09 XBig12= 1.04D-13 4.16D-08.
     24 vectors produced by pass  9 Test12= 2.33D-14 1.00D-09 XBig12= 5.69D-15 7.52D-09.
     24 vectors produced by pass 10 Test12= 2.33D-14 1.00D-09 XBig12= 1.92D-15 6.10D-09.
     24 vectors produced by pass 11 Test12= 2.33D-14 1.00D-09 XBig12= 1.10D-14 9.08D-09.
     24 vectors produced by pass 12 Test12= 2.33D-14 1.00D-09 XBig12= 1.17D-14 1.10D-08.
     24 vectors produced by pass 13 Test12= 2.33D-14 1.00D-09 XBig12= 1.10D-14 1.08D-08.
     24 vectors produced by pass 14 Test12= 2.33D-14 1.00D-09 XBig12= 8.40D-15 8.30D-09.
     24 vectors produced by pass 15 Test12= 2.33D-14 1.00D-09 XBig12= 7.17D-15 8.01D-09.
     24 vectors produced by pass 16 Test12= 2.33D-14 1.00D-09 XBig12= 6.80D-15 5.73D-09.
     24 vectors produced by pass 17 Test12= 2.33D-14 1.00D-09 XBig12= 5.00D-15 6.42D-09.
     23 vectors produced by pass 18 Test12= 2.33D-14 1.00D-09 XBig12= 8.31D-15 5.71D-09.
     21 vectors produced by pass 19 Test12= 2.33D-14 1.00D-09 XBig12= 3.43D-15 4.05D-09.
     21 vectors produced by pass 20 Test12= 2.33D-14 1.00D-09 XBig12= 7.52D-15 6.93D-09.
     21 vectors produced by pass 21 Test12= 2.33D-14 1.00D-09 XBig12= 5.87D-15 5.36D-09.
     21 vectors produced by pass 22 Test12= 2.33D-14 1.00D-09 XBig12= 5.33D-15 5.35D-09.
     12 vectors produced by pass 23 Test12= 2.33D-14 1.00D-09 XBig12= 2.19D-15 3.39D-09.
     10 vectors produced by pass 24 Test12= 2.33D-14 1.00D-09 XBig12= 1.96D-15 3.61D-09.
     10 vectors produced by pass 25 Test12= 2.33D-14 1.00D-09 XBig12= 4.01D-15 3.86D-09.
     10 vectors produced by pass 26 Test12= 2.33D-14 1.00D-09 XBig12= 2.73D-15 3.46D-09.
     10 vectors produced by pass 27 Test12= 2.33D-14 1.00D-09 XBig12= 2.96D-15 3.25D-09.
     10 vectors produced by pass 28 Test12= 2.33D-14 1.00D-09 XBig12= 3.42D-15 4.21D-09.
     10 vectors produced by pass 29 Test12= 2.33D-14 1.00D-09 XBig12= 2.88D-15 3.77D-09.
     10 vectors produced by pass 30 Test12= 2.33D-14 1.00D-09 XBig12= 2.74D-15 3.55D-09.
      9 vectors produced by pass 31 Test12= 2.33D-14 1.00D-09 XBig12= 2.70D-15 3.11D-09.
      7 vectors produced by pass 32 Test12= 2.33D-14 1.00D-09 XBig12= 1.19D-15 2.20D-09.
      7 vectors produced by pass 33 Test12= 2.33D-14 1.00D-09 XBig12= 3.55D-15 3.41D-09.
      7 vectors produced by pass 34 Test12= 2.33D-14 1.00D-09 XBig12= 2.09D-15 2.82D-09.
      7 vectors produced by pass 35 Test12= 2.33D-14 1.00D-09 XBig12= 1.96D-15 2.91D-09.
      6 vectors produced by pass 36 Test12= 2.33D-14 1.00D-09 XBig12= 9.77D-16 3.57D-09.
      6 vectors produced by pass 37 Test12= 2.33D-14 1.00D-09 XBig12= 3.12D-15 3.93D-09.
      6 vectors produced by pass 38 Test12= 2.33D-14 1.00D-09 XBig12= 2.15D-15 2.67D-09.
      6 vectors produced by pass 39 Test12= 2.33D-14 1.00D-09 XBig12= 1.51D-15 2.42D-09.
      6 vectors produced by pass 40 Test12= 2.33D-14 1.00D-09 XBig12= 1.06D-15 2.12D-09.
      5 vectors produced by pass 41 Test12= 2.33D-14 1.00D-09 XBig12= 1.18D-15 1.98D-09.
      5 vectors produced by pass 42 Test12= 2.33D-14 1.00D-09 XBig12= 2.34D-15 2.77D-09.
      4 vectors produced by pass 43 Test12= 2.33D-14 1.00D-09 XBig12= 8.47D-16 1.84D-09.
      4 vectors produced by pass 44 Test12= 2.33D-14 1.00D-09 XBig12= 7.61D-16 1.81D-09.
      4 vectors produced by pass 45 Test12= 2.33D-14 1.00D-09 XBig12= 8.99D-16 1.83D-09.
      4 vectors produced by pass 46 Test12= 2.33D-14 1.00D-09 XBig12= 1.05D-15 2.34D-09.
      4 vectors produced by pass 47 Test12= 2.33D-14 1.00D-09 XBig12= 1.33D-15 2.19D-09.
      4 vectors produced by pass 48 Test12= 2.33D-14 1.00D-09 XBig12= 1.50D-15 2.44D-09.
      4 vectors produced by pass 49 Test12= 2.33D-14 1.00D-09 XBig12= 1.37D-15 2.56D-09.
      4 vectors produced by pass 50 Test12= 2.33D-14 1.00D-09 XBig12= 2.65D-15 3.08D-09.
      4 vectors produced by pass 51 Test12= 2.33D-14 1.00D-09 XBig12= 8.93D-16 2.12D-09.
      4 vectors produced by pass 52 Test12= 2.33D-14 1.00D-09 XBig12= 1.47D-15 2.97D-09.
      4 vectors produced by pass 53 Test12= 2.33D-14 1.00D-09 XBig12= 1.38D-15 2.39D-09.
      4 vectors produced by pass 54 Test12= 2.33D-14 1.00D-09 XBig12= 1.72D-15 2.48D-09.
      3 vectors produced by pass 55 Test12= 2.33D-14 1.00D-09 XBig12= 7.09D-16 1.58D-09.
      3 vectors produced by pass 56 Test12= 2.33D-14 1.00D-09 XBig12= 1.77D-15 2.36D-09.
      3 vectors produced by pass 57 Test12= 2.33D-14 1.00D-09 XBig12= 7.66D-16 1.59D-09.
      3 vectors produced by pass 58 Test12= 2.33D-14 1.00D-09 XBig12= 9.33D-16 1.66D-09.
      3 vectors produced by pass 59 Test12= 2.33D-14 1.00D-09 XBig12= 1.55D-15 2.22D-09.
      3 vectors produced by pass 60 Test12= 2.33D-14 1.00D-09 XBig12= 1.51D-15 2.38D-09.
      3 vectors produced by pass 61 Test12= 2.33D-14 1.00D-09 XBig12= 1.20D-15 2.03D-09.
      3 vectors produced by pass 62 Test12= 2.33D-14 1.00D-09 XBig12= 1.74D-15 2.63D-09.
      3 vectors produced by pass 63 Test12= 2.33D-14 1.00D-09 XBig12= 1.03D-15 1.91D-09.
      3 vectors produced by pass 64 Test12= 2.33D-14 1.00D-09 XBig12= 7.46D-16 1.71D-09.
      2 vectors produced by pass 65 Test12= 2.33D-14 1.00D-09 XBig12= 7.74D-16 1.55D-09.
 InvSVY:  IOpt=1 It=  1 EMax= 1.60D-14
 Solved reduced A of dimension  1353 with   117 vectors.
 FullF1:  Do perturbations    1 to     3.
 Isotropic polarizability for W=    0.000000      217.01 Bohr**3.
 End of Minotr F.D. properties file   721 does not exist.
 End of Minotr F.D. properties file   722 does not exist.
 End of Minotr F.D. properties file   788 does not exist.
 Leave Link 1002 at Tue May  8 14:46:04 2018, MaxMem=   268435456 cpu:     19558.5
 (Enter /ihome/crc/build/g09/g09-D.01/TAR/g09/l601.exe)
 Copying SCF densities to generalized density rwf, IOpCl= 0 IROHF=0.

 **********************************************************************

            Population analysis using the SCF density.

 **********************************************************************

 Orbital symmetries:
       Occupied  (A) (A) (A) (A) (A) (A) (A) (A) (A) (A) (A) (A)
                 (A) (A) (A) (A) (A) (A) (A) (A) (A) (A) (A) (A)
                 (A) (A) (A) (A) (A) (A) (A) (A) (A) (A) (A) (A)
                 (A) (A) (A) (A) (A) (A) (A) (A) (A) (A) (A) (A)
                 (A) (A) (A) (A) (A) (A) (A) (A) (A)
       Virtual   (A) (A) (A) (A) (A) (A) (A) (A) (A) (A) (A) (A)
                 (A) (A) (A) (A) (A) (A) (A) (A) (A) (A) (A) (A)
                 (A) (A) (A) (A) (A) (A) (A) (A) (A) (A) (A) (A)
                 (A) (A) (A) (A) (A) (A) (A) (A) (A) (A) (A) (A)
                 (A) (A) (A) (A) (A) (A) (A) (A) (A) (A) (A) (A)
                 (A) (A) (A) (A) (A) (A) (A) (A) (A) (A) (A) (A)
                 (A) (A) (A) (A) (A) (A) (A) (A) (A) (A) (A) (A)
                 (A) (A) (A) (A) (A) (A) (A) (A) (A) (A) (A) (A)
                 (A) (A) (A) (A) (A) (A) (A) (A) (A) (A) (A) (A)
                 (A) (A) (A) (A) (A) (A) (A) (A) (A) (A) (A) (A)
                 (A) (A) (A) (A) (A) (A) (A) (A) (A) (A) (A) (A)
                 (A) (A) (A) (A) (A) (A) (A) (A) (A) (A) (A) (A)
                 (A) (A) (A) (A) (A) (A) (A) (A) (A) (A) (A) (A)
                 (A) (A) (A) (A) (A) (A) (A) (A) (A) (A) (A) (A)
                 (A) (A) (A) (A) (A) (A) (A) (A) (A) (A) (A) (A)
                 (A) (A) (A) (A) (A) (A) (A) (A) (A) (A) (A) (A)
                 (A) (A) (A) (A) (A) (A) (A) (A) (A) (A) (A) (A)
                 (A) (A) (A) (A) (A) (A) (A) (A) (A) (A) (A) (A)
                 (A) (A) (A) (A) (A) (A) (A) (A) (A) (A) (A) (A)
                 (A) (A) (A) (A) (A) (A) (A) (A) (A) (A) (A) (A)
                 (A) (A) (A) (A) (A) (A) (A) (A) (A) (A) (A) (A)
                 (A) (A) (A) (A) (A) (A) (A) (A) (A) (A) (A) (A)
                 (A) (A) (A) (A) (A) (A) (A) (A) (A) (A) (A) (A)
                 (A) (A) (A) (A) (A) (A) (A) (A) (A) (A) (A) (A)
                 (A) (A) (A) (A) (A) (A) (A) (A) (A) (A) (A) (A)
                 (A) (A) (A) (A) (A) (A) (A) (A) (A) (A) (A) (A)
                 (A) (A) (A) (A) (A) (A) (A) (A) (A) (A) (A) (A)
                 (A) (A) (A) (A) (A) (A) (A) (A) (A) (A) (A) (A)
                 (A) (A) (A) (A) (A) (A) (A) (A) (A) (A) (A) (A)
                 (A) (A) (A) (A) (A) (A) (A) (A) (A) (A) (A) (A)
                 (A) (A) (A) (A) (A) (A) (A) (A) (A) (A) (A) (A)
                 (A) (A) (A) (A) (A) (A) (A) (A) (A) (A) (A) (A)
                 (A) (A) (A) (A) (A) (A) (A) (A) (A) (A) (A) (A)
                 (A) (A) (A) (A) (A) (A) (A) (A) (A) (A) (A) (A)
                 (A)
 The electronic state is 1-A.
 Alpha  occ. eigenvalues --  -14.73389 -10.57472 -10.57445 -10.56064 -10.54619
 Alpha  occ. eigenvalues --  -10.54614 -10.53519 -10.53486 -10.53070 -10.51791
 Alpha  occ. eigenvalues --  -10.51789 -10.51786 -10.51784 -10.51032 -10.51029
 Alpha  occ. eigenvalues --   -1.05012  -0.93038  -0.91519  -0.90130  -0.82774
 Alpha  occ. eigenvalues --   -0.79813  -0.76951  -0.76932  -0.76755  -0.76229
 Alpha  occ. eigenvalues --   -0.71269  -0.69022  -0.61918  -0.60358  -0.56727
 Alpha  occ. eigenvalues --   -0.56147  -0.52630  -0.52011  -0.51100  -0.49627
 Alpha  occ. eigenvalues --   -0.49026  -0.48816  -0.48689  -0.45910  -0.45847
 Alpha  occ. eigenvalues --   -0.45684  -0.44914  -0.43676  -0.43374  -0.42779
 Alpha  occ. eigenvalues --   -0.42668  -0.41666  -0.41653  -0.40205  -0.38486
 Alpha  occ. eigenvalues --   -0.38126  -0.37881  -0.37791  -0.36403  -0.32378
 Alpha  occ. eigenvalues --   -0.31073  -0.29207
 Alpha virt. eigenvalues --    0.01395   0.01414   0.01812   0.02452   0.02688
 Alpha virt. eigenvalues --    0.03602   0.04046   0.04106   0.04618   0.04670
 Alpha virt. eigenvalues --    0.05845   0.05921   0.06181   0.06466   0.06831
 Alpha virt. eigenvalues --    0.07572   0.07730   0.08055   0.08424   0.08671
 Alpha virt. eigenvalues --    0.09369   0.10330   0.10350   0.10974   0.11165
 Alpha virt. eigenvalues --    0.11503   0.12439   0.12733   0.12842   0.13612
 Alpha virt. eigenvalues --    0.13978   0.14063   0.15038   0.15233   0.15925
 Alpha virt. eigenvalues --    0.16050   0.17016   0.17486   0.17670   0.18353
 Alpha virt. eigenvalues --    0.18947   0.19687   0.20007   0.20289   0.20534
 Alpha virt. eigenvalues --    0.21148   0.21353   0.21696   0.22032   0.22404
 Alpha virt. eigenvalues --    0.22497   0.23014   0.23167   0.23821   0.24107
 Alpha virt. eigenvalues --    0.24262   0.25159   0.25252   0.25670   0.26104
 Alpha virt. eigenvalues --    0.26753   0.27228   0.27375   0.27592   0.27756
 Alpha virt. eigenvalues --    0.28151   0.28249   0.28854   0.29014   0.29475
 Alpha virt. eigenvalues --    0.30080   0.30124   0.30741   0.30742   0.31043
 Alpha virt. eigenvalues --    0.31253   0.32289   0.32423   0.32683   0.33173
 Alpha virt. eigenvalues --    0.33226   0.33927   0.33935   0.34653   0.35670
 Alpha virt. eigenvalues --    0.36064   0.36922   0.37202   0.37316   0.39728
 Alpha virt. eigenvalues --    0.40062   0.40288   0.41630   0.42110   0.44736
 Alpha virt. eigenvalues --    0.45510   0.46010   0.46978   0.47713   0.48262
 Alpha virt. eigenvalues --    0.49128   0.50706   0.51237   0.51522   0.52891
 Alpha virt. eigenvalues --    0.54417   0.54699   0.54839   0.56229   0.57746
 Alpha virt. eigenvalues --    0.58472   0.59171   0.60011   0.60539   0.60808
 Alpha virt. eigenvalues --    0.61733   0.62922   0.63139   0.64914   0.65738
 Alpha virt. eigenvalues --    0.66492   0.66712   0.67459   0.67844   0.68135
 Alpha virt. eigenvalues --    0.69286   0.69949   0.70290   0.70512   0.71307
 Alpha virt. eigenvalues --    0.71431   0.71743   0.72362   0.73051   0.73504
 Alpha virt. eigenvalues --    0.74065   0.74784   0.74867   0.75229   0.75310
 Alpha virt. eigenvalues --    0.76509   0.76822   0.77216   0.77513   0.78818
 Alpha virt. eigenvalues --    0.79102   0.79802   0.80123   0.80947   0.82046
 Alpha virt. eigenvalues --    0.82307   0.83961   0.84328   0.84499   0.84710
 Alpha virt. eigenvalues --    0.84981   0.86677   0.88042   0.89014   0.89738
 Alpha virt. eigenvalues --    0.92484   0.93720   0.96531   0.97281   0.98748
 Alpha virt. eigenvalues --    0.99035   0.99812   1.00289   1.00930   1.02608
 Alpha virt. eigenvalues --    1.03881   1.05582   1.06300   1.06522   1.09140
 Alpha virt. eigenvalues --    1.10532   1.12515   1.12791   1.13517   1.15971
 Alpha virt. eigenvalues --    1.16872   1.20588   1.21502   1.22597   1.22880
 Alpha virt. eigenvalues --    1.25749   1.27551   1.29710   1.31895   1.33707
 Alpha virt. eigenvalues --    1.34209   1.36029   1.38339   1.40868   1.43396
 Alpha virt. eigenvalues --    1.47499   1.47921   1.48525   1.48978   1.49815
 Alpha virt. eigenvalues --    1.50818   1.51069   1.51273   1.52124   1.52747
 Alpha virt. eigenvalues --    1.53254   1.53382   1.55654   1.56332   1.57080
 Alpha virt. eigenvalues --    1.57746   1.58198   1.59728   1.59796   1.59968
 Alpha virt. eigenvalues --    1.60776   1.61677   1.62289   1.62627   1.63446
 Alpha virt. eigenvalues --    1.63794   1.65371   1.66370   1.67094   1.67601
 Alpha virt. eigenvalues --    1.67930   1.68612   1.69748   1.70603   1.71066
 Alpha virt. eigenvalues --    1.72918   1.73190   1.73304   1.73820   1.74483
 Alpha virt. eigenvalues --    1.75473   1.76112   1.76736   1.77821   1.79114
[...]
 6,-0.00024731,-0.00016028,-0.00068969,0.00004620,-0.00008740,0.0001918
 3,0.00351834,-0.02797850,0.00045857,0.04931316,0.00046307,-0.00009307,
 0.00011453,-0.00012488,-0.00040261,-0.00022470,-0.00018912,-0.00024644
 ,0.00035460,0.00061851,0.00122094,0.00227048,0.00008710,-0.00051037,0.
 00017049,-0.00017837,0.00054487,0.00000374,0.00000346,-0.00002344,-0.0
 0000031,-0.00007001,-0.00004170,-0.00006923,0.00064671,-0.01104247,-0.
 00073054,0.00011067,0.00002347,-0.00011699,0.00000208,-0.00003170,-0.0
 0000636,-0.00001710,-0.00001268,0.00000062,-0.00000930,-0.00001348,-0.
 00000368,-0.00002066,-0.00003514,0.00000207,0.00005569,0.00000005,-0.0
 0002114,0.00006515,-0.00000902,0.00005288,0.00002403,-0.00003542,0.000
 01018,0.02006049,-0.30656824,0.00003062,-0.00014311,0.00033735,-0.0008
 0814,-0.00058301,0.00035343,-0.00106916,-0.00000262,0.00001210,-0.0000
 0072,0.00001744,-0.00001824,0.00002375,-0.00000767,0.00000312,-0.00000
 118,0.00000075,-0.00000070,-0.00000603,0.00002692,-0.00000489,0.000006
 92,-0.00000669,-0.00000038,0.00000273,-0.00000406,0.00001540,0.0000010
 3,-0.00001196,0.00000319,0.00000094,0.00003274,-0.00002085,-0.00001525
 ,0.00001223,-0.00003646,0.00013715,0.00030117,0.00044902,0.00003424,-0
 .00007902,0.00036825,0.00008441,0.00139735,-0.01055709,-0.00006350,-0.
 02212910,0.33255334,-0.00040672,0.00026289,-0.00013551,-0.00001377,0.0
 0038572,0.00055195,-0.00053219,0.00142856,-0.00038167,-0.00161121,-0.0
 0100278,-0.00503988,0.00004592,0.00087085,0.00039838,0.00017388,-0.000
 47874,0.00017529,0.00003371,0.00001921,-0.00005631,0.00007158,0.000042
 40,0.00004868,-0.00221962,0.02986152,-0.00194305,0.00011020,-0.0000483
 9,-0.00001877,-0.00000107,0.00002515,-0.00001466,0.00001598,0.00001365
 ,0.00000020,0.00001454,0.00002383,0.00000697,0.00001865,0.00002292,-0.
 00000141,-0.00003585,0.00000682,0.00002101,-0.00004315,0.00001930,-0.0
 0004820,-0.00001724,0.00003064,-0.00001735,0.00048049,-0.00194996,-0.0
 4715124,-0.00036184,0.00076687,0.00177535,0.00093432,0.00090181,0.0010
 7728,0.00000135,-0.00001247,-0.00000015,-0.00001304,0.00001098,-0.0000
 1674,0.00000577,-0.00000233,0.00000261,-0.00000343,0.00000259,0.000010
 28,-0.00002229,0.00000262,-0.00000120,-0.00000134,-0.00000346,-0.00000
 391,0.00000146,-0.00001218,-0.00000419,-0.00000195,-0.00000458,0.00000
 790,-0.00002724,0.00001061,0.00001868,-0.00008814,-0.00013640,-0.00001
 445,-0.00038215,-0.00043087,-0.00030653,0.00032397,-0.00008560,0.00012
 944,0.00145170,-0.00780379,-0.00091329,0.00200520,-0.00078370,0.051829
 48,-0.00003360,-0.00009989,-0.00002851,0.00000328,0.00008209,0.0000343
 8,0.00018626,-0.00047350,0.00019682,0.00045877,0.00018742,-0.00004734,
 -0.00035519,-0.00018343,-0.00012152,0.00011603,-0.00005729,0.00002125,
 0.00000302,-0.00001013,0.00000605,-0.00000259,-0.00000292,0.00000502,0
 .00490773,-0.00312061,-0.00641479,0.00006013,0.00003581,0.00010949,-0.
 00000057,0.00000250,0.00001276,0.00000316,0.00000404,-0.00000584,-0.00
 001815,-0.00001144,-0.00000336,0.00000042,-0.00000327,-0.00000368,-0.0
 0000181,-0.00000235,-0.00000262,-0.00000400,-0.00000544,0.00000986,0.0
 0000072,-0.00000108,-0.00000148,-0.17067107,0.04855532,0.12231563,0.00
 024566,0.00020978,-0.00158101,0.00099975,-0.00011665,-0.00027236,-0.00
 000117,-0.00000038,0.00000160,0.00000093,0.00000007,0.00000054,0.00000
 015,-0.00000019,-0.00000388,-0.00000085,-0.00000024,-0.00000711,0.0000
 0216,-0.00000316,0.00000034,-0.00000210,0.00000411,0.00000620,-0.00000
 057,-0.00000492,0.00000216,0.00001041,0.00000413,-0.00000249,0.0000005
 6,0.00000062,-0.00000646,-0.00004743,0.00021235,0.00000247,-0.00002685
 ,-0.00009931,0.00004503,0.00016076,-0.00004712,0.00010557,-0.01748962,
 0.00865519,0.01844030,-0.00121712,-0.00001084,0.00001208,0.18201531,-0
 .00011334,0.00002285,-0.00001153,0.00008993,0.00002211,-0.00000184,0.0
 0005519,0.00021527,-0.00016332,-0.00093944,0.00068460,0.00085240,-0.00
 012479,0.00026538,-0.00024130,0.00011387,-0.00020543,-0.00008573,0.000
 00499,0.00000374,0.00001652,0.00002236,0.00000702,0.00001399,-0.007737
 22,0.00132404,0.00744333,-0.00000220,0.00004415,0.00009818,0.00000648,
 -0.00000425,0.00002036,0.00000598,0.00000709,-0.00000188,-0.00000450,0
 .00000086,-0.00000004,0.00000195,0.00000488,-0.00000302,-0.00001725,-0
 .00000211,0.00000701,-0.00001924,-0.00000394,-0.00000592,-0.00000752,0
 .00000796,-0.00000341,0.04896281,-0.06705475,-0.04865054,0.00062412,-0
 .00032596,0.00194289,-0.00026208,-0.00011415,-0.00045423,0.00000065,-0
 .00000343,0.00000056,-0.00000486,0.00000600,-0.00000771,0.00000181,-0.
 00000048,-0.00000223,0.00000085,0.00000077,-0.00000190,-0.00000869,0.0
 0000161,-0.00000302,0.00000488,0.00000640,0.00000161,-0.00000016,-0.00
 000647,0.00000143,0.00001402,0.00000269,-0.00000565,-0.00000983,0.0000
 0767,-0.00000214,-0.00009608,0.00010991,-0.00025561,0.00010276,-0.0000
 0157,-0.00003570,-0.00010202,-0.00010301,0.00001438,-0.00837119,0.0030
 8479,0.00943007,0.02182898,-0.00684265,-0.02122850,-0.05384199,0.06794
 949,-0.00000434,-0.00000219,-0.00001587,-0.00003271,0.00004124,-0.0001
 6544,-0.00053671,0.00038290,0.00021154,0.00071101,-0.00172116,0.000376
 08,-0.00000925,0.00029956,0.00021949,0.00012176,0.00003242,-0.00009184
 ,-0.00000893,0.00000270,0.00002447,0.00000893,0.00001756,-0.00000133,0
 .01981360,-0.00787089,-0.01914868,-0.00007691,-0.00001491,0.00002869,-
 0.00000779,0.00001905,-0.00000762,-0.00000664,-0.00000290,-0.00000083,
 0.00000509,0.00000047,0.00000391,0.00000456,0.00000392,0.00000168,-0.0
 0000572,-0.00000473,-0.00000868,0.00000378,0.00000725,-0.00002107,0.00
 000679,0.00001137,-0.00002209,0.12089247,-0.04776989,-0.16534211,-0.00
 296659,0.00276122,-0.00527077,0.00145760,-0.00006263,0.00108821,-0.000
 00041,-0.00000300,0.00000243,-0.00000090,0.00000095,0.00000097,0.00000
 068,0.00000072,0.00000791,0.00000182,0.00000037,0.00000461,0.00000015,
 -0.00000544,0.00000592,-0.00001714,-0.00000308,0.00000360,-0.00000239,
 -0.00000112,0.00000159,-0.00001040,0.00000297,0.00001555,0.00000151,-0
 .00000138,0.00000779,-0.00068626,0.00001704,0.00030301,-0.00009372,0.0
 0001576,-0.00004123,-0.00013509,0.00021198,0.00030269,-0.00614126,0.00
 321552,0.00622742,-0.00109466,0.00015936,0.00024321,-0.13236228,0.0506
 8758,0.18198384,0.00040312,0.00004792,0.00021188,-0.00007611,-0.000484
 47,-0.00006016,-0.00029952,0.00067582,-0.00019038,0.00036288,-0.001812
 05,-0.00016853,-0.00034142,-0.00028202,-0.00060208,0.00019954,0.000536
 60,-0.00018968,0.00003843,-0.00001113,0.00005079,-0.00004419,-0.000016
 09,0.00000419,-0.01953854,-0.00859126,-0.00640727,0.00045638,-0.000019
 31,0.00033569,-0.00000646,0.00002666,-0.00003564,0.00000917,0.00000201
 ,0.00000383,-0.00001439,-0.00000948,-0.00000334,-0.00000466,-0.0000172
 0,0.00000259,0.00005267,0.00000304,-0.00000055,0.00003153,0.00000545,0
 .00002678,0.00000831,-0.00002357,0.00000499,0.00079245,-0.00004696,-0.
 00141059,-0.25524385,-0.09031042,-0.05679479,-0.00237155,0.00243706,0.
 00439151,0.00000170,0.00001473,-0.00000286,0.00000700,-0.00001154,0.00
 001291,-0.00000596,-0.00000226,-0.00000187,0.00000154,-0.00000775,0.00
 001791,0.00000496,0.00001456,0.00000055,0.00001194,-0.00000537,-0.0000
 1771,-0.00000226,0.00001062,0.00000356,-0.00000269,-0.00000074,-0.0000
 0369,0.00000978,-0.00001089,-0.00000761,-0.00138039,-0.00078295,-0.000
 21561,0.00026902,-0.00006758,-0.00002857,0.00029978,0.00009224,-0.0000
 3764,0.00042417,-0.00005161,0.00056351,-0.00002821,0.00004898,0.000114
 31,0.00023276,0.00026312,-0.00001592,0.27824706,-0.00020804,0.00002457
 ,0.00001922,0.00009406,0.00020189,-0.00004153,0.00001340,-0.00013631,0
 .00008328,0.00013647,0.00064288,0.00080743,0.00036109,-0.00069582,-0.0
 0060868,0.00014173,-0.00020591,0.00000081,-0.00000575,0.00000115,-0.00
 000056,0.00001994,0.00000778,-0.00000733,0.00844088,0.00198035,0.00246
 323,0.00050470,-0.00079059,-0.00080171,0.00001512,0.00001963,-0.000034
 20,-0.00000724,-0.00000535,-0.00000336,-0.00000527,0.00000598,0.000004
 58,0.00000427,0.00001216,0.00000285,-0.00001507,0.00000278,0.00000208,
 -0.00000891,0.00000104,-0.00001011,-0.00000355,0.00000817,0.00000060,-
 0.00029346,0.00007349,0.00046564,-0.09218985,-0.08622985,-0.02468649,0
 .00097344,-0.00019751,-0.00084730,0.00000058,-0.00000390,-0.00000130,-
 0.00000586,0.00000412,-0.00000538,0.00000187,0.00000050,0.00000238,-0.
 00000092,0.00000017,0.00000102,-0.00000546,-0.00000061,-0.00000136,0.0
 0000023,-0.00000150,-0.00000042,0.00000134,-0.00000458,-0.00000114,0.0
 0000112,-0.00000086,0.00000138,-0.00000624,0.00000324,0.00000321,0.000
 31908,0.00059901,-0.00012355,0.00015359,0.00043318,0.00000886,-0.00012
 702,-0.00010413,-0.00019449,-0.00018151,0.00014536,0.00026022,-0.00009
 814,-0.00002367,-0.00006320,0.00009501,-0.00010089,0.00008638,0.099562
 04,0.09114484,-0.00017777,0.00000308,-0.00000996,0.00003730,0.00020419
 ,-0.00001119,0.00011275,-0.00020484,0.00025796,-0.00067393,0.00061307,
 0.00026568,0.00023788,-0.00022500,-0.00038019,0.00005730,-0.00014286,-
 0.00000555,-0.00000604,-0.00000659,0.00000133,0.00000524,0.00000210,-0
 .00002247,0.01811214,0.00913842,0.00428710,0.00029016,-0.00061955,-0.0
 0067207,0.00000144,0.00000284,-0.00001035,0.00001521,0.00000976,0.0000
 1384,-0.00000200,-0.00000434,-0.00001020,0.00000112,-0.00000293,-0.000
 00271,-0.00000028,0.00000085,-0.00000752,0.00000670,0.00000019,0.00000
 461,0.00000330,-0.00000664,-0.00001197,0.00050430,0.00042126,0.0017592
 4,-0.05850433,-0.02497339,-0.06311691,0.00293067,-0.00139777,-0.002819
 92,-0.00000273,0.00000214,0.00000498,0.00000199,-0.00000089,-0.0000004
 6,-0.00000446,-0.00000302,0.00000026,0.00000147,0.00000241,-0.00000221
 ,0.00000227,-0.00000299,0.00000399,-0.00000568,0.00000538,0.00000693,-
 0.00000062,-0.00000129,0.00000087,-0.00000002,0.00000206,0.00000137,0.
 00000227,-0.00000346,-0.00000229,0.00129523,0.00039919,0.00054140,-0.0
 0011522,-0.00009076,-0.00013861,0.00014972,-0.00007339,0.00020802,-0.0
 0016322,-0.00030549,-0.00025898,-0.00004482,0.00011897,-0.00007457,-0.
 00013648,-0.00006745,0.00021261,0.06053461,0.02915215,0.06679581,-0.00
 004119,-0.00008881,0.00000928,-0.00004157,0.00009110,0.00004326,0.0000
 5038,-0.00019926,-0.00030813,0.00073243,-0.00072601,0.00023206,-0.0002
 5899,-0.00000656,-0.00016412,0.00012244,-0.00003333,0.00010773,0.00000
 724,-0.00000673,-0.00001617,0.00000337,0.00000636,-0.00000175,0.004643
 86,-0.00771974,0.02019131,0.00006661,0.00002826,-0.00008620,0.00000249
 ,0.00000769,-0.00000300,-0.00001147,-0.00000182,-0.00001245,-0.0000073
 4,0.00000250,0.00000462,0.00000275,-0.00000219,-0.00000016,-0.00000234
 ,-0.00000096,0.00000119,-0.00000694,-0.00000458,0.00000337,-0.00000292
 ,0.00000427,0.00001330,-0.00321039,0.00140001,0.00291739,-0.06330689,0
 .02073716,-0.06151774,0.00154039,-0.00014629,0.00050314,-0.00000002,-0
 .00000465,-0.00000338,0.00000033,-0.00000037,0.00000204,0.00000598,0.0
 0000546,-0.00000303,-0.00000555,0.00000253,-0.00001154,0.00000353,-0.0
 0000542,-0.00000212,-0.00000182,-0.00000029,0.00000335,0.00000036,-0.0
 0000170,-0.00000294,0.00000070,0.00000022,-0.00000032,0.00000088,0.000
 00047,-0.00000067,0.00018561,0.00008149,-0.00017178,-0.00005641,-0.000
 07488,-0.00005338,-0.00025686,0.00019054,-0.00035195,0.00015619,0.0001
 2339,0.00011235,-0.00014144,0.00001602,-0.00014507,0.00057116,-0.00030
 533,0.00139260,-0.00604015,0.01026185,-0.02500526,0.06671346,-0.000101
 00,0.00002526,-0.00004467,0.00006850,0.00001883,0.00005603,-0.00006431
 ,0.00023455,0.00015733,-0.00033944,0.00066247,-0.00119126,-0.00022387,
 0.00027414,0.00015108,0.00005755,-0.00020981,0.00012075,0.00001247,0.0
 0000471,-0.00001306,0.00002681,0.00000808,-0.00000057,-0.00251474,0.00
 141513,-0.00907422,0.00004340,0.00004722,-0.00008742,0.00001233,-0.000
 00302,0.00000493,-0.00000380,0.00000408,-0.00000665,0.00000353,0.00000
 861,0.00000354,0.00000311,0.00000390,-0.00000264,-0.00001993,-0.000003
 59,-0.00000385,-0.00001155,-0.00000200,-0.00001470,-0.00000872,0.00000
 836,0.00000094,0.00127863,-0.00011460,-0.00123711,0.02056534,-0.073899
 59,0.07641432,-0.00039490,-0.00014396,0.00024025,0.00000074,-0.0000062
 9,-0.00000174,-0.00000931,0.00000771,-0.00000311,0.00000912,0.00000231
 ,0.00001120,0.00000423,0.00000627,0.00000089,-0.00000886,0.00000135,-0
 .00000207,0.00000013,0.00000067,0.00000186,0.00000086,-0.00000354,-0.0
 0000043,0.00000062,-0.00000055,0.00000242,-0.00000820,0.00000570,0.000
 00431,-0.00008096,-0.00008801,-0.00008535,0.00006297,-0.00000084,0.000
 08125,-0.00027136,0.00007816,0.00015409,0.00019601,-0.00010273,0.00017
 435,-0.00002966,0.00033695,-0.00022649,0.00001035,0.00066047,-0.000481
 14,-0.00246596,0.00371010,-0.01223413,-0.02383150,0.07527629,-0.000014
 20,-0.00004677,-0.00001031,0.00011031,0.00001058,-0.00011834,0.0004426
 8,-0.00056920,0.00033478,-0.00054085,0.00159468,0.00010738,-0.00028501
 ,-0.00034391,0.00012035,0.00000342,-0.00006616,-0.00010097,-0.00000087
 ,-0.00000832,0.00001888,-0.00000426,-0.00001609,-0.00000838,-0.0060094
 6,0.00614338,-0.01900028,0.00010261,0.00003209,0.00001804,0.00001677,-
 0.00001903,0.00000357,-0.00001042,0.00000314,-0.00001086,0.00000068,0.
 00000772,0.00000708,-0.00000252,-0.00000920,-0.00000223,0.00000650,-0.
 00000807,-0.00002332,0.00000593,0.00000290,-0.00000382,0.00000427,-0.0
 0000884,-0.00001901,0.00431642,-0.00212288,-0.00202955,-0.06011072,0.0
 7543539,-0.26641807,-0.00122679,-0.00005429,0.00057600,0.00000148,-0.0
 0000184,0.00000095,-0.00000655,0.00000149,0.00000804,0.00000528,-0.000
 00117,0.00002059,0.00001201,0.00000480,0.00000728,-0.00000223,0.000002
 95,0.00000481,-0.00000555,-0.00000076,0.00000558,-0.00000084,0.0000021
 8,0.00000105,-0.00000484,-0.00000113,0.00000739,0.00000034,-0.00000053
 ,0.00000133,0.00006421,-0.00022434,0.00026431,0.00009192,-0.00006323,-
 0.00001292,0.00034338,0.00007994,0.00051384,-0.00000519,-0.00004473,0.
 00028945,-0.00003164,0.00004923,0.00028556,-0.00023851,0.00051816,-0.0
 0139743,-0.00122611,0.00208656,-0.00584179,0.06360891,-0.08179412,0.29
 058923,-0.00020523,0.00023659,0.00001140,0.00026429,0.00016678,-0.0004
 4696,-0.00049806,0.00107988,0.00007923,-0.00284277,-0.00138733,0.00325
 701,0.00015380,0.00044093,-0.00030066,0.00025025,-0.00019116,-0.000278
 70,0.00000199,0.00000800,0.00009025,0.00005834,0.00002030,0.00001739,-
 0.00375420,0.02300911,0.00110540,0.00019755,-0.00004532,0.00025240,-0.
 00001718,0.00002242,0.00001175,0.00001821,0.00001164,0.00000303,0.0000
 0643,0.00001151,0.00000207,0.00000900,0.00001251,0.00000517,-0.0000299
 9,0.00000943,0.00000741,-0.00001361,0.00000922,-0.00002315,-0.00002237
 ,0.00001772,0.00000275,0.00054366,0.00003159,-0.00127766,-0.04918301,0
 .01921775,-0.00051008,0.00098178,0.00126048,-0.00020186,-0.00000088,-0
 .00001046,0.00000225,-0.00001276,0.00000760,-0.00001513,0.00000443,-0.
 00000226,-0.00000087,0.00000190,0.00000199,0.00000142,-0.00001585,0.00
 000428,-0.00000712,0.00000148,0.00000502,-0.00000567,-0.00000059,-0.00
 001186,-0.00000002,0.00000477,-0.00000110,0.00000151,-0.00001503,0.000
 00643,0.00000486,0.00029550,-0.00011456,-0.00010098,-0.00072161,-0.000
 37412,0.00042212,-0.00008739,-0.00001494,-0.00010884,-0.00000903,-0.00
 011794,0.00007720,0.00035146,-0.00040307,0.00011220,-0.00010645,-0.000
 13701,-0.00020631,0.00353617,-0.02793953,0.00053980,-0.00141785,0.0080
 3139,0.00058946,0.05227285,0.00043553,-0.00008180,0.00012343,-0.000203
 58,-0.00038753,0.00008727,-0.00000880,-0.00015967,-0.00040609,0.001484
 56,0.00126973,-0.00143302,0.00018079,-0.00045851,-0.00013553,-0.000152
 94,0.00052438,-0.00004798,0.00000282,-0.00002256,0.00000438,-0.0000914
 4,-0.00004162,0.00002226,0.00020430,-0.00968091,0.00050208,0.00003875,
 0.00001428,0.00015903,0.00000185,-0.00002673,-0.00002843,-0.00000585,-
 0.00000801,0.00000536,-0.00001652,-0.00002362,-0.00000887,-0.00001732,
 -0.00003311,-0.00000346,0.00008000,-0.00000662,-0.00001137,0.00003599,
 -0.00000112,0.00004470,0.00002531,-0.00003366,0.00000241,-0.00050842,0
 .00034166,0.00055183,0.02058080,-0.30665846,-0.00308177,-0.00099271,0.
 00033579,0.00061444,-0.00000347,0.00001453,-0.00000201,0.00001989,-0.0
 0002144,0.00002736,-0.00000976,0.00000312,-0.00000727,-0.00000453,-0.0
 0000031,-0.00000569,0.00002579,-0.00000480,0.00000710,-0.00000236,-0.0
 0000097,0.00000494,-0.00000241,0.00001185,0.00000003,-0.00000698,0.000
 00305,-0.00000278,0.00002640,-0.00001681,-0.00001180,-0.00001534,0.000
 37054,-0.00008889,0.00027395,0.00043921,0.00015035,0.00007519,-0.00003
 616,-0.00011407,0.00010731,-0.00001731,-0.00007040,-0.00021311,0.00034
 922,-0.00043547,0.00003735,0.00032935,-0.00003385,0.00128975,-0.010520
 91,0.00028871,0.00020111,-0.00822282,-0.00057057,-0.02287191,0.3324587
 4,0.00040203,-0.00016850,0.00010025,-0.00016493,-0.00040656,0.00027501
 ,0.00048446,-0.00100651,-0.00012687,0.00297606,0.00068829,-0.00219039,
 -0.00016749,-0.00080696,0.00014215,-0.00015659,0.00047375,-0.00004569,
 0.00000173,-0.00001550,-0.00002227,-0.00007197,-0.00004148,0.00001639,
 0.00161096,-0.02153772,-0.00171466,0.00001733,0.00003137,0.00007977,0.
 00000611,-0.00001906,-0.00003892,-0.00001231,-0.00001043,-0.00000297,-
 0.00001476,-0.00002069,-0.00000384,-0.00001149,-0.00002067,-0.00000515
 ,0.00005969,-0.00001542,-0.00001994,0.00001752,-0.00000402,0.00003098,
 0.00001656,-0.00002648,-0.00000677,-0.00037519,-0.00096462,0.00122520,
 -0.00049169,-0.00159948,-0.04780329,-0.00104073,-0.00033227,0.00039799
 ,-0.00000014,0.00000874,-0.00000320,0.00000984,-0.00001064,0.00002722,
 -0.00000065,0.00000370,0.00000845,0.00000452,0.00000543,-0.00000241,0.
 00001522,-0.00000107,0.00000818,-0.00000197,-0.00000078,0.00000911,-0.
 00000176,0.00000862,-0.00000016,-0.00000504,0.00000222,0.,0.00001594,-
 0.00000928,-0.00000732,-0.00022889,0.00005132,-0.00012065,0.00013164,0
 .00030706,0.00021851,0.00005370,0.00014343,-0.00002408,-0.00006623,0.0
 0000927,-0.00009765,0.00033214,0.00029169,-0.00043919,-0.00008784,0.00
 018419,0.00025777,0.00114099,-0.00801978,-0.00096610,-0.00128471,0.028
 92518,0.00181177,-0.00311206,0.00390365,0.04903278\\-0.00008798,0.0001
 8296,-0.00005202,-0.00178169,0.00117449,-0.00046181,-0.00173416,-0.001
 42162,-0.00052064,0.00044484,-0.00211642,0.00006635,0.00019189,-0.0000
 8308,0.00006316,0.00117242,0.00093218,0.00028271,-0.00014303,0.0018862
 5,0.00001056,0.00035114,-0.00014399,0.00010005,-0.00004674,0.00038911,
 -0.00000105,0.00171414,-0.00068984,0.00045652,-0.00082299,-0.00096349,
 -0.00007333,0.00147989,-0.00019500,-0.00072903,0.00052392,0.00017531,0
 .00153491,-0.00012869,0.00173622,-0.00036387,-0.00027110,-0.00102466,0
 .00133264,0.00045850,-0.00094431,-0.00133282,0.00106463,0.00124418,0.0
 0032614,-0.00051569,0.00040266,-0.00156379,-0.00125566,0.00033496,0.00
 109582,0.00145212,0.00070151,0.00041947,0.00094420,0.00134293,0.000107
 88,-0.00142578,0.00071721,-0.00055268,0.00060303,-0.00070773,-0.001368
 62,0.00033243,-0.00105987,-0.00132697,-0.00152114,0.00054020,-0.000401
 31,-0.00037813,-0.00112354,0.00126274,0.00084487,0.00133042,0.00045408
 ,-0.00017269,-0.00077977,0.00145502,-0.00151704,0.00071571,-0.00021793
 ,-0.00137286,0.00025309,0.00102391,0.00006420,-0.00166022,-0.00002521,
 -0.00066802,0.00032177,-0.00156616,0.00144381,0.00049762,0.00059580,0.
 00019710,-0.00166733,0.00018896,-0.00101844,0.00038852,0.00125187,0.00
 154157,0.00050597,0.00024653,-0.00024503,0.00046383,-0.00157059,0.0002
 8214,-0.00165620,-0.00014731\\\@


 CHARLIE BROWN -- WHICH DO YOU THINK LASTS LONGER IN LIFE, THE GOOD THINGS 
                  OR THE BAD THINGS?
 LINUS --         GOOD THINGS LAST EIGHT SECONDS ..
                  BAD THINGS LAST THREE WEEKS
 CHARLIE BROWN -- WHAT ABOUT IN BETWEEN?
 SNOOPY --        IN BETWEEN YOU SHOULD TAKE A NAP ...
 Job cpu time:       0 days  7 hours 39 minutes  3.1 seconds.
 File lengths (MBytes):  RWF=   1361 Int=      0 D2E=      0 Chk=     26 Scr=      1
 Normal termination of Gaussian 09 at Tue May  8 14:58:13 2018.
 Read checkpoint file 2.chk
 Write formatted file 2.fchk
 FChkPn:  Coordinates translated and rotated.
 FChkPn:  Coordinates match /B/ after translation and rotation.
