 Entering Gaussian System, Link 0=g09
 Initial command:
 /ihome/crc/build/g09/g09-D.01/TAR/g09/l1.exe "/scratch/slurm-1120973/Gau-369370.inp" -scrdir="/scratch/slurm-1120973/"
 Entering Link 1 = /ihome/crc/build/g09/g09-D.01/TAR/g09/l1.exe PID=    369371.
  
 Copyright (c) 1988,1990,1992,1993,1995,1998,2003,2009,2013,
            Gaussian, Inc.  All Rights Reserved.
  
 This is part of the Gaussian(R) 09 program.  It is based on
 the Gaussian(R) 03 system (copyright 2003, Gaussian, Inc.),
 the Gaussian(R) 98 system (copyright 1998, Gaussian, Inc.),
 the Gaussian(R) 94 system (copyright 1995, Gaussian, Inc.),
 the Gaussian 92(TM) system (copyright 1992, Gaussian, Inc.),
 the Gaussian 90(TM) system (copyright 1990, Gaussian, Inc.),
 the Gaussian 88(TM) system (copyright 1988, Gaussian, Inc.),
 the Gaussian 86(TM) system (copyright 1986, Carnegie Mellon
 University), and the Gaussian 82(TM) system (copyright 1983,
 Carnegie Mellon University). Gaussian is a federally registered
 trademark of Gaussian, Inc.
  
 This software contains proprietary and confidential information,
 including trade secrets, belonging to Gaussian, Inc.
  
 This software is provided under written license and may be
 used, copied, transmitted, or stored only in accord with that
 written license.
  
 The following legend is applicable only to US Government
 contracts under FAR:
  
                    RESTRICTED RIGHTS LEGEND
  
 Use, reproduction and disclosure by the US Government is
 subject to restrictions as set forth in subparagraphs (a)
 and (c) of the Commercial Computer Software - Restricted
 Rights clause in FAR 52.227-19.
  
 Gaussian, Inc.
 340 Quinnipiac St., Bldg. 40, Wallingford CT 06492
  
  
 ---------------------------------------------------------------
 Warning -- This program may not be used in any manner that
 competes with the business of Gaussian, Inc. or will provide
 assistance to any competitor of Gaussian, Inc.  The licensee
 of this program is prohibited from giving any competitor of
 Gaussian, Inc. access to this program.  By using this program,
 the user acknowledges that Gaussian, Inc. is engaged in the
 business of creating and licensing software in the field of
 computational chemistry and represents and warrants to the
 licensee that it is not a competitor of Gaussian, Inc. and that
 it will not use this program in any manner prohibited above.
 ---------------------------------------------------------------
  

 Cite this work as:
 Gaussian 09, Revision D.01,
 M. J. Frisch, G. W. Trucks, H. B. Schlegel, G. E. Scuseria, 
 M. A. Robb, J. R. Cheeseman, G. Scalmani, V. Barone, B. Mennucci, 
 G. A. Petersson, H. Nakatsuji, M. Caricato, X. Li, H. P. Hratchian, 
 A. F. Izmaylov, J. Bloino, G. Zheng, J. L. Sonnenberg, M. Hada, 
 M. Ehara, K. Toyota, R. Fukuda, J. Hasegawa, M. Ishida, T. Nakajima, 
 Y. Honda, O. Kitao, H. Nakai, T. Vreven, J. A. Montgomery, Jr., 
 J. E. Peralta, F. Ogliaro, M. Bearpark, J. J. Heyd, E. Brothers, 
 K. N. Kudin, V. N. Staroverov, T. Keith, R. Kobayashi, J. Normand, 
 K. Raghavachari, A. Rendell, J. C. Burant, S. S. Iyengar, J. Tomasi, 
 M. Cossi, N. Rega, J. M. Millam, M. Klene, J. E. Knox, J. B. Cross, 
 V. Bakken, C. Adamo, J. Jaramillo, R. Gomperts, R. E. Stratmann, 
 O. Yazyev, A. J. Austin, R. Cammi, C. Pomelli, J. W. Ochterski, 
 R. L. Martin, K. Morokuma, V. G. Zakrzewski, G. A. Voth, 
 P. Salvador, J. J. Dannenberg, S. Dapprich, A. D. Daniels, 
 O. Farkas, J. B. Foresman, J. V. Ortiz, J. Cioslowski, 
 and D. J. Fox, Gaussian, Inc., Wallingford CT, 2013.
 
 ******************************************
 Gaussian 09:  EM64L-G09RevD.01 24-Apr-2013
                 8-May-2018 
 ******************************************
 %NProc=8
 Will use up to    8 processors via shared memory.
 %Mem=4GB
 %chk=3.chk
 ---------------------------------------------------------
 #p opt freq m062x/6-31+g(d) scrf=(smd,solvent=chloroform)
 ---------------------------------------------------------
 1/14=-1,18=20,19=15,26=3,38=1/1,3;
 2/9=110,12=2,17=6,18=5,40=1/2;
 3/5=1,6=6,7=11,11=2,16=1,25=1,30=1,70=32201,71=1,72=7,74=-55/1,2,3;
 4//1;
 5/5=2,38=5,53=7/2;
 6/7=2,8=2,9=2,10=2,28=1/1;
 7//1,2,3,16;
 1/14=-1,18=20,19=15,26=3/3(2);
 2/9=110/2;
 99//99;
 2/9=110/2;
 3/5=1,6=6,7=11,11=2,16=1,25=1,30=1,70=32205,71=1,72=7,74=-55/1,2,3;
 4/5=5,16=3,69=1/1;
 5/5=2,38=5,53=7/2;
 7//1,2,3,16;
 1/14=-1,18=20,19=15,26=3/3(-5);
 2/9=110/2;
 6/7=2,8=2,9=2,10=2,19=2,28=1/1;
 99/9=1/99;
 Leave Link    1 at Tue May  8 03:07:16 2018, MaxMem=   536870912 cpu:         0.2
 (Enter /ihome/crc/build/g09/g09-D.01/TAR/g09/l101.exe)
 ---------------------------------------------------------------------
 Initial structure is that optimized at constrained bond length of 2.8
 ---------------------------------------------------------------------
 Symbolic Z-matrix:
 Charge =  0 Multiplicity = 1
 C                     5.83346  -0.66725  -0.48911 
 C                     5.83765   0.43794   0.36446 
 C                     4.63318  -1.28577  -0.81745 
 C                     3.42875  -0.79535  -0.2932 
 C                     3.43396   0.30914   0.56488 
 C                     4.64044   0.92338   0.88983 
 N                    -1.76725   0.35745   0.67152 
 C                    -1.54782   1.46181  -0.05455 
 C                    -2.07681   1.61025  -1.33883 
 C                    -2.863     0.59568  -1.88565 
 C                    -3.10289  -0.53016  -1.09928 
 C                    -2.54622  -0.6143    0.18022 
 H                     6.7658   -1.04659  -0.89639 
 H                     6.77634   0.92206   0.61941 
 H                     2.50659   0.69149   0.97848 
 H                     4.64335   1.78199   1.55453 
 H                     4.61599  -2.14652  -1.47882 
 C                    -0.70174   2.57588   0.56845 
 H                    -1.88412   2.51291  -1.91411 
 C                    -2.83107  -1.82552   1.07257 
 C                    -3.41427   0.70574  -3.28194 
 H                    -3.72731  -1.33348  -1.48299 
 C                     2.1908   -1.50992  -0.69734 
 O                     2.14882  -2.47637  -1.39968 
 Cl                    0.65396  -0.83556  -0.07313 
 H                    -3.62082   1.7474   -3.54497 
 H                    -4.33712   0.12847  -3.39125 
 H                    -2.69036   0.3166   -4.00765 
 C                    -4.33872  -1.86421   1.37723 
 C                    -2.06358  -1.73892   2.39404 
 C                    -2.43015  -3.11984   0.34683 
 C                    -1.58078   3.82772   0.73419 
 C                     0.4823    2.91195  -0.3535 
 C                    -0.16615   2.16738   1.94315 
 H                     0.14628   3.29221  -1.3242 
 H                     1.10546   2.02896  -0.53545 
 H                     1.10911   3.68462   0.10829 
 H                    -1.95416   4.18996  -0.23008 
 H                    -1.00197   4.63651   1.19685 
 H                    -2.44477   3.61668   1.37533 
 H                    -0.98001   1.97045   2.64808 
 H                     0.45324   2.9772    2.3472 
 H                     0.44073   1.258     1.8855 
 H                    -2.9929   -3.25731  -0.58282 
 H                    -2.63195  -3.98489   0.99007 
 H                    -1.36261  -3.11976   0.10001 
 H                    -2.34596  -0.85028   2.96746 
 H                    -0.98195  -1.69828   2.22919 
 H                    -2.28709  -2.62539   2.99959 
 H                    -4.65944  -0.94665   1.88456 
 H                    -4.56892  -2.71382   2.03155 
 H                    -4.93265  -1.97301   0.46282 
 
 Add virtual bond connecting atoms H36        and H15        Dist= 4.65D+00.
 Add virtual bond connecting atoms H43        and H15        Dist= 4.40D+00.
 NAtoms=     52 NQM=       52 NQMF=       0 NMMI=      0 NMMIF=      0
                NMic=       0 NMicF=      0.
                    Isotopes and Nuclear Properties:
 (Nuclear quadrupole moments (NQMom) in fm**2, nuclear magnetic moments (NMagM)
  in nuclear magnetons)

  Atom         1           2           3           4           5           6           7           8           9          10
 IAtWgt=          12          12          12          12          12          12          14          12          12          12
 AtmWgt=  12.0000000  12.0000000  12.0000000  12.0000000  12.0000000  12.0000000  14.0030740  12.0000000  12.0000000  12.0000000
 NucSpn=           0           0           0           0           0           0           2           0           0           0
 AtZEff=   0.0000000   0.0000000   0.0000000   0.0000000   0.0000000   0.0000000   0.0000000   0.0000000   0.0000000   0.0000000
 NQMom=    0.0000000   0.0000000   0.0000000   0.0000000   0.0000000   0.0000000   2.0440000   0.0000000   0.0000000   0.0000000
 NMagM=    0.0000000   0.0000000   0.0000000   0.0000000   0.0000000   0.0000000   0.4037610   0.0000000   0.0000000   0.0000000
 AtZNuc=   6.0000000   6.0000000   6.0000000   6.0000000   6.0000000   6.0000000   7.0000000   6.0000000   6.0000000   6.0000000

  Atom        11          12          13          14          15          16          17          18          19          20
 IAtWgt=          12          12           1           1           1           1           1          12           1          12
 AtmWgt=  12.0000000  12.0000000   1.0078250   1.0078250   1.0078250   1.0078250   1.0078250  12.0000000   1.0078250  12.0000000
 NucSpn=           0           0           1           1           1           1           1           0           1           0
 AtZEff=   0.0000000   0.0000000   0.0000000   0.0000000   0.0000000   0.0000000   0.0000000   0.0000000   0.0000000   0.0000000
 NQMom=    0.0000000   0.0000000   0.0000000   0.0000000   0.0000000   0.0000000   0.0000000   0.0000000   0.0000000   0.0000000
 NMagM=    0.0000000   0.0000000   2.7928460   2.7928460   2.7928460   2.7928460   2.7928460   0.0000000   2.7928460   0.0000000
 AtZNuc=   6.0000000   6.0000000   1.0000000   1.0000000   1.0000000   1.0000000   1.0000000   6.0000000   1.0000000   6.0000000

  Atom        21          22          23          24          25          26          27          28          29          30
 IAtWgt=          12           1          12          16          35           1           1           1          12          12
 AtmWgt=  12.0000000   1.0078250  12.0000000  15.9949146  34.9688527   1.0078250   1.0078250   1.0078250  12.0000000  12.0000000
 NucSpn=           0           1           0           0           3           1           1           1           0           0
 AtZEff=   0.0000000   0.0000000   0.0000000   0.0000000   0.0000000   0.0000000   0.0000000   0.0000000   0.0000000   0.0000000
 NQMom=    0.0000000   0.0000000   0.0000000   0.0000000  -8.1650000   0.0000000   0.0000000   0.0000000   0.0000000   0.0000000
 NMagM=    0.0000000   2.7928460   0.0000000   0.0000000   0.8218740   2.7928460   2.7928460   2.7928460   0.0000000   0.0000000
 AtZNuc=   6.0000000   1.0000000   6.0000000   8.0000000  17.0000000   1.0000000   1.0000000   1.0000000   6.0000000   6.0000000

  Atom        31          32          33          34          35          36          37          38          39          40
 IAtWgt=          12          12          12          12           1           1           1           1           1           1
 AtmWgt=  12.0000000  12.0000000  12.0000000  12.0000000   1.0078250   1.0078250   1.0078250   1.0078250   1.0078250   1.0078250
 NucSpn=           0           0           0           0           1           1           1           1           1           1
 AtZEff=   0.0000000   0.0000000   0.0000000   0.0000000   0.0000000   0.0000000   0.0000000   0.0000000   0.0000000   0.0000000
 NQMom=    0.0000000   0.0000000   0.0000000   0.0000000   0.0000000   0.0000000   0.0000000   0.0000000   0.0000000   0.0000000
 NMagM=    0.0000000   0.0000000   0.0000000   0.0000000   2.7928460   2.7928460   2.7928460   2.7928460   2.7928460   2.7928460
 AtZNuc=   6.0000000   6.0000000   6.0000000   6.0000000   1.0000000   1.0000000   1.0000000   1.0000000   1.0000000   1.0000000

  Atom        41          42          43          44          45          46          47          48          49          50
 IAtWgt=           1           1           1           1           1           1           1           1           1           1
 AtmWgt=   1.0078250   1.0078250   1.0078250   1.0078250   1.0078250   1.0078250   1.0078250   1.0078250   1.0078250   1.0078250
 NucSpn=           1           1           1           1           1           1           1           1           1           1
 AtZEff=   0.0000000   0.0000000   0.0000000   0.0000000   0.0000000   0.0000000   0.0000000   0.0000000   0.0000000   0.0000000
 NQMom=    0.0000000   0.0000000   0.0000000   0.0000000   0.0000000   0.0000000   0.0000000   0.0000000   0.0000000   0.0000000
 NMagM=    2.7928460   2.7928460   2.7928460   2.7928460   2.7928460   2.7928460   2.7928460   2.7928460   2.7928460   2.7928460
 AtZNuc=   1.0000000   1.0000000   1.0000000   1.0000000   1.0000000   1.0000000   1.0000000   1.0000000   1.0000000   1.0000000

  Atom        51          52
 IAtWgt=           1           1
 AtmWgt=   1.0078250   1.0078250
 NucSpn=           1           1
 AtZEff=   0.0000000   0.0000000
 NQMom=    0.0000000   0.0000000
 NMagM=    2.7928460   2.7928460
 AtZNuc=   1.0000000   1.0000000
 Leave Link  101 at Tue May  8 03:07:16 2018, MaxMem=   536870912 cpu:         1.1
 (Enter /ihome/crc/build/g09/g09-D.01/TAR/g09/l103.exe)

 GradGradGradGradGradGradGradGradGradGradGradGradGradGradGradGradGradGrad
 Berny optimization.
 Initialization pass.
                           ----------------------------
                           !    Initial Parameters    !
                           ! (Angstroms and Degrees)  !
 --------------------------                            --------------------------
 ! Name  Definition              Value          Derivative Info.                !
 --------------------------------------------------------------------------------
 ! R1    R(1,2)                  1.3964         estimate D2E/DX2                !
 ! R2    R(1,3)                  1.3896         estimate D2E/DX2                !
 ! R3    R(1,13)                 1.0858         estimate D2E/DX2                !
 ! R4    R(2,6)                  1.3946         estimate D2E/DX2                !
 ! R5    R(2,14)                 1.0865         estimate D2E/DX2                !
 ! R6    R(3,4)                  1.4021         estimate D2E/DX2                !
 ! R7    R(3,17)                 1.0856         estimate D2E/DX2                !
 ! R8    R(4,5)                  1.3987         estimate D2E/DX2                !
 ! R9    R(4,23)                 1.4854         estimate D2E/DX2                !
 ! R10   R(5,6)                  1.3923         estimate D2E/DX2                !
 ! R11   R(5,15)                 1.085          estimate D2E/DX2                !
 ! R12   R(6,16)                 1.0858         estimate D2E/DX2                !
 ! R13   R(7,8)                  1.3397         estimate D2E/DX2                !
 ! R14   R(7,12)                 1.3388         estimate D2E/DX2                !
 ! R15   R(8,9)                  1.3969         estimate D2E/DX2                !
 ! R16   R(8,18)                 1.5314         estimate D2E/DX2                !
 ! R17   R(9,10)                 1.3952         estimate D2E/DX2                !
 ! R18   R(9,19)                 1.0876         estimate D2E/DX2                !
 ! R19   R(10,11)                1.3941         estimate D2E/DX2                !
 ! R20   R(10,21)                1.5052         estimate D2E/DX2                !
 ! R21   R(11,12)                1.3979         estimate D2E/DX2                !
 ! R22   R(11,22)                1.0874         estimate D2E/DX2                !
 ! R23   R(12,20)                1.5312         estimate D2E/DX2                !
 ! R24   R(15,36)                2.4585         estimate D2E/DX2                !
 ! R25   R(15,43)                2.3262         estimate D2E/DX2                !
 ! R26   R(18,32)                1.5386         estimate D2E/DX2                !
 ! R27   R(18,33)                1.5378         estimate D2E/DX2                !
 ! R28   R(18,34)                1.5309         estimate D2E/DX2                !
 ! R29   R(20,29)                1.5386         estimate D2E/DX2                !
 ! R30   R(20,30)                1.5306         estimate D2E/DX2                !
 ! R31   R(20,31)                1.5371         estimate D2E/DX2                !
 ! R32   R(21,26)                1.094          estimate D2E/DX2                !
 ! R33   R(21,27)                1.094          estimate D2E/DX2                !
 ! R34   R(21,28)                1.0964         estimate D2E/DX2                !
 ! R35   R(23,24)                1.1954         estimate D2E/DX2                !
 ! R36   R(23,25)                1.7906         estimate D2E/DX2                !
 ! R37   R(29,50)                1.0964         estimate D2E/DX2                !
 ! R38   R(29,51)                1.0968         estimate D2E/DX2                !
 ! R39   R(29,52)                1.0958         estimate D2E/DX2                !
 ! R40   R(30,47)                1.0946         estimate D2E/DX2                !
 ! R41   R(30,48)                1.0949         estimate D2E/DX2                !
 ! R42   R(30,49)                1.0966         estimate D2E/DX2                !
 ! R43   R(31,44)                1.0954         estimate D2E/DX2                !
 ! R44   R(31,45)                1.0967         estimate D2E/DX2                !
 ! R45   R(31,46)                1.0957         estimate D2E/DX2                !
 ! R46   R(32,38)                1.0956         estimate D2E/DX2                !
 ! R47   R(32,39)                1.0969         estimate D2E/DX2                !
 ! R48   R(32,40)                1.0964         estimate D2E/DX2                !
 ! R49   R(33,35)                1.0953         estimate D2E/DX2                !
 ! R50   R(33,36)                1.0959         estimate D2E/DX2                !
 ! R51   R(33,37)                1.0969         estimate D2E/DX2                !
 ! R52   R(34,41)                1.0946         estimate D2E/DX2                !
 ! R53   R(34,42)                1.0967         estimate D2E/DX2                !
 ! R54   R(34,43)                1.0948         estimate D2E/DX2                !
 ! A1    A(2,1,3)              119.9526         estimate D2E/DX2                !
 ! A2    A(2,1,13)             120.2104         estimate D2E/DX2                !
 ! A3    A(3,1,13)             119.8369         estimate D2E/DX2                !
 ! A4    A(1,2,6)              120.2097         estimate D2E/DX2                !
 ! A5    A(1,2,14)             119.9116         estimate D2E/DX2                !
 ! A6    A(6,2,14)             119.8787         estimate D2E/DX2                !
 ! A7    A(1,3,4)              119.8636         estimate D2E/DX2                !
 ! A8    A(1,3,17)             120.6983         estimate D2E/DX2                !
 ! A9    A(4,3,17)             119.4381         estimate D2E/DX2                !
 ! A10   A(3,4,5)              120.1576         estimate D2E/DX2                !
 ! A11   A(3,4,23)             116.4815         estimate D2E/DX2                !
 ! A12   A(5,4,23)             123.3607         estimate D2E/DX2                !
 ! A13   A(4,5,6)              119.6568         estimate D2E/DX2                !
 ! A14   A(4,5,15)             120.594          estimate D2E/DX2                !
 ! A15   A(6,5,15)             119.7492         estimate D2E/DX2                !
 ! A16   A(2,6,5)              120.1587         estimate D2E/DX2                !
 ! A17   A(2,6,16)             120.2347         estimate D2E/DX2                !
 ! A18   A(5,6,16)             119.6066         estimate D2E/DX2                !
 ! A19   A(8,7,12)             119.6511         estimate D2E/DX2                !
 ! A20   A(7,8,9)              121.5896         estimate D2E/DX2                !
 ! A21   A(7,8,18)             118.0144         estimate D2E/DX2                !
 ! A22   A(9,8,18)             120.3943         estimate D2E/DX2                !
 ! A23   A(8,9,10)             119.7672         estimate D2E/DX2                !
 ! A24   A(8,9,19)             120.4918         estimate D2E/DX2                !
 ! A25   A(10,9,19)            119.7404         estimate D2E/DX2                !
 ! A26   A(9,10,11)            117.5916         estimate D2E/DX2                !
 ! A27   A(9,10,21)            121.1178         estimate D2E/DX2                !
 ! A28   A(11,10,21)           121.2845         estimate D2E/DX2                !
 ! A29   A(10,11,12)           119.7615         estimate D2E/DX2                !
 ! A30   A(10,11,22)           119.7605         estimate D2E/DX2                !
 ! A31   A(12,11,22)           120.4767         estimate D2E/DX2                !
 ! A32   A(7,12,11)            121.5941         estimate D2E/DX2                !
 ! A33   A(7,12,20)            117.9392         estimate D2E/DX2                !
 ! A34   A(11,12,20)           120.4615         estimate D2E/DX2                !
 ! A35   A(5,15,36)            116.3648         estimate D2E/DX2                !
 ! A36   A(36,15,43)            66.5149         estimate D2E/DX2                !
 ! A37   A(8,18,32)            108.6676         estimate D2E/DX2                !
 ! A38   A(8,18,33)            109.906          estimate D2E/DX2                !
 ! A39   A(8,18,34)            111.3761         estimate D2E/DX2                !
 ! A40   A(32,18,33)           109.0666         estimate D2E/DX2                !
 ! A41   A(32,18,34)           108.6788         estimate D2E/DX2                !
 ! A42   A(33,18,34)           109.1051         estimate D2E/DX2                !
 ! A43   A(12,20,29)           108.5167         estimate D2E/DX2                !
 ! A44   A(12,20,30)           111.4145         estimate D2E/DX2                !
 ! A45   A(12,20,31)           110.0237         estimate D2E/DX2                !
 ! A46   A(29,20,30)           108.772          estimate D2E/DX2                !
 ! A47   A(29,20,31)           109.1414         estimate D2E/DX2                !
 ! A48   A(30,20,31)           108.9343         estimate D2E/DX2                !
 ! A49   A(10,21,26)           111.2103         estimate D2E/DX2                !
 ! A50   A(10,21,27)           111.2883         estimate D2E/DX2                !
 ! A51   A(10,21,28)           110.2572         estimate D2E/DX2                !
 ! A52   A(26,21,27)           108.61           estimate D2E/DX2                !
 ! A53   A(26,21,28)           107.6643         estimate D2E/DX2                !
 ! A54   A(27,21,28)           107.6704         estimate D2E/DX2                !
 ! A55   A(4,23,24)            125.3119         estimate D2E/DX2                !
 ! A56   A(4,23,25)            116.0578         estimate D2E/DX2                !
 ! A57   A(24,23,25)           118.6289         estimate D2E/DX2                !
 ! A58   A(20,29,50)           110.9287         estimate D2E/DX2                !
 ! A59   A(20,29,51)           110.076          estimate D2E/DX2                !
 ! A60   A(20,29,52)           111.6154         estimate D2E/DX2                !
 ! A61   A(50,29,51)           108.1082         estimate D2E/DX2                !
 ! A62   A(50,29,52)           108.0999         estimate D2E/DX2                !
 ! A63   A(51,29,52)           107.8878         estimate D2E/DX2                !
 ! A64   A(20,30,47)           111.6442         estimate D2E/DX2                !
 ! A65   A(20,30,48)           111.5592         estimate D2E/DX2                !
 ! A66   A(20,30,49)           109.1971         estimate D2E/DX2                !
 ! A67   A(47,30,48)           107.6731         estimate D2E/DX2                !
 ! A68   A(47,30,49)           108.3257         estimate D2E/DX2                !
 ! A69   A(48,30,49)           108.3313         estimate D2E/DX2                !
 ! A70   A(20,31,44)           111.8627         estimate D2E/DX2                !
 ! A71   A(20,31,45)           109.8317         estimate D2E/DX2                !
 ! A72   A(20,31,46)           111.1264         estimate D2E/DX2                !
 ! A73   A(44,31,45)           107.7134         estimate D2E/DX2                !
 ! A74   A(44,31,46)           108.0221         estimate D2E/DX2                !
 ! A75   A(45,31,46)           108.1466         estimate D2E/DX2                !
 ! A76   A(18,32,38)           111.6474         estimate D2E/DX2                !
 ! A77   A(18,32,39)           110.1132         estimate D2E/DX2                !
 ! A78   A(18,32,40)           110.892          estimate D2E/DX2                !
 ! A79   A(38,32,39)           107.8935         estimate D2E/DX2                !
 ! A80   A(38,32,40)           108.0442         estimate D2E/DX2                !
 ! A81   A(39,32,40)           108.125          estimate D2E/DX2                !
 ! A82   A(18,33,35)           111.7754         estimate D2E/DX2                !
 ! A83   A(18,33,36)           111.1774         estimate D2E/DX2                !
 ! A84   A(18,33,37)           109.9702         estimate D2E/DX2                !
 ! A85   A(35,33,36)           107.8787         estimate D2E/DX2                !
 ! A86   A(35,33,37)           107.6894         estimate D2E/DX2                !
 ! A87   A(36,33,37)           108.21           estimate D2E/DX2                !
 ! A88   A(18,34,41)           111.4815         estimate D2E/DX2                !
 ! A89   A(18,34,42)           109.3536         estimate D2E/DX2                !
 ! A90   A(18,34,43)           111.6108         estimate D2E/DX2                !
 ! A91   A(41,34,42)           108.3922         estimate D2E/DX2                !
 ! A92   A(41,34,43)           107.2557         estimate D2E/DX2                !
 ! A93   A(42,34,43)           108.6443         estimate D2E/DX2                !
 ! A94   A(15,36,33)           131.3107         estimate D2E/DX2                !
 ! A95   A(15,43,34)           135.651          estimate D2E/DX2                !
 ! A96   L(5,15,43,36,-1)      182.8797         estimate D2E/DX2                !
 ! A97   L(5,15,43,36,-2)      173.5158         estimate D2E/DX2                !
 ! D1    D(3,1,2,6)              0.0355         estimate D2E/DX2                !
 ! D2    D(3,1,2,14)          -179.8971         estimate D2E/DX2                !
 ! D3    D(13,1,2,6)          -179.8624         estimate D2E/DX2                !
 ! D4    D(13,1,2,14)            0.205          estimate D2E/DX2                !
 ! D5    D(2,1,3,4)              0.1825         estimate D2E/DX2                !
 ! D6    D(2,1,3,17)          -179.9193         estimate D2E/DX2                !
 ! D7    D(13,1,3,4)          -179.9192         estimate D2E/DX2                !
 ! D8    D(13,1,3,17)           -0.021          estimate D2E/DX2                !
 ! D9    D(1,2,6,5)             -0.0617         estimate D2E/DX2                !
 ! D10   D(1,2,6,16)           179.9269         estimate D2E/DX2                !
 ! D11   D(14,2,6,5)           179.871          estimate D2E/DX2                !
 ! D12   D(14,2,6,16)           -0.1404         estimate D2E/DX2                !
 ! D13   D(1,3,4,5)             -0.376          estimate D2E/DX2                !
 ! D14   D(1,3,4,23)           179.7752         estimate D2E/DX2                !
 ! D15   D(17,3,4,5)           179.7246         estimate D2E/DX2                !
 ! D16   D(17,3,4,23)           -0.1243         estimate D2E/DX2                !
 ! D17   D(3,4,5,6)              0.3493         estimate D2E/DX2                !
 ! D18   D(3,4,5,15)          -179.6982         estimate D2E/DX2                !
 ! D19   D(23,4,5,6)          -179.8126         estimate D2E/DX2                !
 ! D20   D(23,4,5,15)            0.1398         estimate D2E/DX2                !
 ! D21   D(3,4,23,24)            1.8706         estimate D2E/DX2                !
 ! D22   D(3,4,23,25)         -177.6905         estimate D2E/DX2                !
 ! D23   D(5,4,23,24)         -177.9729         estimate D2E/DX2                !
 ! D24   D(5,4,23,25)            2.4659         estimate D2E/DX2                !
 ! D25   D(4,5,6,2)             -0.1308         estimate D2E/DX2                !
 ! D26   D(4,5,6,16)           179.8806         estimate D2E/DX2                !
 ! D27   D(15,5,6,2)           179.9163         estimate D2E/DX2                !
 ! D28   D(15,5,6,16)           -0.0723         estimate D2E/DX2                !
 ! D29   D(4,5,15,36)          -76.784          estimate D2E/DX2                !
 ! D30   D(6,5,15,36)          103.1685         estimate D2E/DX2                !
 ! D31   D(4,5,43,34)         -125.7098         estimate D2E/DX2                !
 ! D32   D(6,5,43,34)           57.4394         estimate D2E/DX2                !
 ! D33   D(12,7,8,9)            -2.1866         estimate D2E/DX2                !
 ! D34   D(12,7,8,18)          177.3537         estimate D2E/DX2                !
 ! D35   D(8,7,12,11)            2.3598         estimate D2E/DX2                !
 ! D36   D(8,7,12,20)         -176.8115         estimate D2E/DX2                !
 ! D37   D(7,8,9,10)             0.5187         estimate D2E/DX2                !
 ! D38   D(7,8,9,19)          -179.7598         estimate D2E/DX2                !
 ! D39   D(18,8,9,10)         -179.0108         estimate D2E/DX2                !
 ! D40   D(18,8,9,19)            0.7107         estimate D2E/DX2                !
 ! D41   D(7,8,18,32)         -116.1319         estimate D2E/DX2                !
 ! D42   D(7,8,18,33)          124.5894         estimate D2E/DX2                !
 ! D43   D(7,8,18,34)            3.5549         estimate D2E/DX2                !
 ! D44   D(9,8,18,32)           63.4141         estimate D2E/DX2                !
 ! D45   D(9,8,18,33)          -55.8646         estimate D2E/DX2                !
 ! D46   D(9,8,18,34)         -176.899          estimate D2E/DX2                !
 ! D47   D(8,9,10,11)            0.9531         estimate D2E/DX2                !
 ! D48   D(8,9,10,21)         -178.1602         estimate D2E/DX2                !
 ! D49   D(19,9,10,11)        -178.7705         estimate D2E/DX2                !
 ! D50   D(19,9,10,21)           2.1162         estimate D2E/DX2                !
 ! D51   D(9,10,11,12)          -0.7883         estimate D2E/DX2                !
 ! D52   D(9,10,11,22)         178.7914         estimate D2E/DX2                !
 ! D53   D(21,10,11,12)        178.3235         estimate D2E/DX2                !
 ! D54   D(21,10,11,22)         -2.0968         estimate D2E/DX2                !
 ! D55   D(9,10,21,26)         -31.7406         estimate D2E/DX2                !
 ! D56   D(9,10,21,27)        -152.9789         estimate D2E/DX2                !
 ! D57   D(9,10,21,28)          87.6114         estimate D2E/DX2                !
 ! D58   D(11,10,21,26)        149.1789         estimate D2E/DX2                !
 ! D59   D(11,10,21,27)         27.9406         estimate D2E/DX2                !
 ! D60   D(11,10,21,28)        -91.4691         estimate D2E/DX2                !
 ! D61   D(10,11,12,7)          -0.8643         estimate D2E/DX2                !
 ! D62   D(10,11,12,20)        178.2863         estimate D2E/DX2                !
 ! D63   D(22,11,12,7)         179.5591         estimate D2E/DX2                !
 ! D64   D(22,11,12,20)         -1.2903         estimate D2E/DX2                !
 ! D65   D(7,12,20,29)         115.976          estimate D2E/DX2                !
 ! D66   D(7,12,20,30)          -3.7524         estimate D2E/DX2                !
 ! D67   D(7,12,20,31)        -124.6763         estimate D2E/DX2                !
 ! D68   D(11,12,20,29)        -63.2051         estimate D2E/DX2                !
 ! D69   D(11,12,20,30)        177.0665         estimate D2E/DX2                !
 ! D70   D(11,12,20,31)         56.1426         estimate D2E/DX2                !
 ! D71   D(5,15,36,33)        -143.3604         estimate D2E/DX2                !
 ! D72   D(43,15,36,33)         43.1238         estimate D2E/DX2                !
 ! D73   D(36,15,43,34)        -45.369          estimate D2E/DX2                !
 ! D74   D(8,18,32,38)         -61.2265         estimate D2E/DX2                !
 ! D75   D(8,18,32,39)         178.9471         estimate D2E/DX2                !
 ! D76   D(8,18,32,40)          59.3174         estimate D2E/DX2                !
 ! D77   D(33,18,32,38)         58.5763         estimate D2E/DX2                !
 ! D78   D(33,18,32,39)        -61.25           estimate D2E/DX2                !
 ! D79   D(33,18,32,40)        179.1203         estimate D2E/DX2                !
 ! D80   D(34,18,32,38)        177.4187         estimate D2E/DX2                !
 ! D81   D(34,18,32,39)         57.5923         estimate D2E/DX2                !
 ! D82   D(34,18,32,40)        -62.0374         estimate D2E/DX2                !
 ! D83   D(8,18,33,35)          62.4566         estimate D2E/DX2                !
 ! D84   D(8,18,33,36)         -58.1606         estimate D2E/DX2                !
 ! D85   D(8,18,33,37)        -177.9858         estimate D2E/DX2                !
 ! D86   D(32,18,33,35)        -56.5777         estimate D2E/DX2                !
 ! D87   D(32,18,33,36)       -177.1948         estimate D2E/DX2                !
 ! D88   D(32,18,33,37)         62.98           estimate D2E/DX2                !
 ! D89   D(34,18,33,35)       -175.1537         estimate D2E/DX2                !
 ! D90   D(34,18,33,36)         64.2291         estimate D2E/DX2                !
 ! D91   D(34,18,33,37)        -55.5961         estimate D2E/DX2                !
 ! D92   D(8,18,34,41)         -61.5228         estimate D2E/DX2                !
 ! D93   D(8,18,34,42)         178.6352         estimate D2E/DX2                !
 ! D94   D(8,18,34,43)          58.3965         estimate D2E/DX2                !
 ! D95   D(32,18,34,41)         58.1574         estimate D2E/DX2                !
 ! D96   D(32,18,34,42)        -61.6846         estimate D2E/DX2                !
 ! D97   D(32,18,34,43)        178.0767         estimate D2E/DX2                !
 ! D98   D(33,18,34,41)        176.9755         estimate D2E/DX2                !
 ! D99   D(33,18,34,42)         57.1336         estimate D2E/DX2                !
 ! D100  D(33,18,34,43)        -63.1051         estimate D2E/DX2                !
 ! D101  D(12,20,29,50)        -59.3621         estimate D2E/DX2                !
 ! D102  D(12,20,29,51)       -178.9702         estimate D2E/DX2                !
 ! D103  D(12,20,29,52)         61.2561         estimate D2E/DX2                !
 ! D104  D(30,20,29,50)         62.0044         estimate D2E/DX2                !
 ! D105  D(30,20,29,51)        -57.6037         estimate D2E/DX2                !
 ! D106  D(30,20,29,52)       -177.3774         estimate D2E/DX2                !
 ! D107  D(31,20,29,50)       -179.2617         estimate D2E/DX2                !
 ! D108  D(31,20,29,51)         61.1302         estimate D2E/DX2                !
 ! D109  D(31,20,29,52)        -58.6435         estimate D2E/DX2                !
 ! D110  D(12,20,30,47)         60.6928         estimate D2E/DX2                !
 ! D111  D(12,20,30,48)        -59.8358         estimate D2E/DX2                !
 ! D112  D(12,20,30,49)       -179.5483         estimate D2E/DX2                !
 ! D113  D(29,20,30,47)        -58.8843         estimate D2E/DX2                !
 ! D114  D(29,20,30,48)       -179.4129         estimate D2E/DX2                !
 ! D115  D(29,20,30,49)         60.8746         estimate D2E/DX2                !
 ! D116  D(31,20,30,47)       -177.7481         estimate D2E/DX2                !
 ! D117  D(31,20,30,48)         61.7233         estimate D2E/DX2                !
 ! D118  D(31,20,30,49)        -57.9892         estimate D2E/DX2                !
 ! D119  D(12,20,31,44)        -60.6593         estimate D2E/DX2                !
 ! D120  D(12,20,31,45)        179.7891         estimate D2E/DX2                !
 ! D121  D(12,20,31,46)         60.1658         estimate D2E/DX2                !
 ! D122  D(29,20,31,44)         58.3065         estimate D2E/DX2                !
 ! D123  D(29,20,31,45)        -61.2451         estimate D2E/DX2                !
 ! D124  D(29,20,31,46)        179.1316         estimate D2E/DX2                !
 ! D125  D(30,20,31,44)        176.9391         estimate D2E/DX2                !
 ! D126  D(30,20,31,45)         57.3875         estimate D2E/DX2                !
 ! D127  D(30,20,31,46)        -62.2358         estimate D2E/DX2                !
 ! D128  D(18,33,36,15)        -65.7433         estimate D2E/DX2                !
 ! D129  D(35,33,36,15)        171.3688         estimate D2E/DX2                !
 ! D130  D(37,33,36,15)         55.1226         estimate D2E/DX2                !
 ! D131  D(18,34,43,15)         68.5348         estimate D2E/DX2                !
 ! D132  D(41,34,43,15)       -169.0872         estimate D2E/DX2                !
 ! D133  D(42,34,43,15)        -52.1194         estimate D2E/DX2                !
 --------------------------------------------------------------------------------
 Trust Radius=3.00D-01 FncErr=1.00D-07 GrdErr=1.00D-06
 Number of steps in this run=    294 maximum allowed number of steps=    312.
 GradGradGradGradGradGradGradGradGradGradGradGradGradGradGradGradGradGrad

 Leave Link  103 at Tue May  8 03:07:16 2018, MaxMem=   536870912 cpu:         0.1
 (Enter /ihome/crc/build/g09/g09-D.01/TAR/g09/l202.exe)
 Stoichiometry    C21H28ClNO
 Framework group  C1[X(C21H28ClNO)]
 Deg. of freedom   150
 Full point group                 C1      NOp   1
 Largest Abelian subgroup         C1      NOp   1
 Largest concise Abelian subgroup C1      NOp   1
                         Standard orientation:                         
 ---------------------------------------------------------------------
 Center     Atomic      Atomic             Coordinates (Angstroms)
 Number     Number       Type             X           Y           Z
 ---------------------------------------------------------------------
      1          6           0       -5.833460   -0.667252    0.489112
      2          6           0       -5.837652    0.437943   -0.364462
      3          6           0       -4.633183   -1.285768    0.817447
      4          6           0       -3.428745   -0.795353    0.293199
      5          6           0       -3.433959    0.309138   -0.564879
      6          6           0       -4.640442    0.923380   -0.889830
      7          7           0        1.767249    0.357449   -0.671515
      8          6           0        1.547817    1.461807    0.054551
      9          6           0        2.076805    1.610247    1.338832
     10          6           0        2.862998    0.595682    1.885653
     11          6           0        3.102890   -0.530161    1.099280
     12          6           0        2.546218   -0.614296   -0.180217
     13          1           0       -6.765798   -1.046585    0.896385
     14          1           0       -6.776336    0.922063   -0.619405
     15          1           0       -2.506587    0.691487   -0.978480
     16          1           0       -4.643348    1.781994   -1.554527
     17          1           0       -4.615992   -2.146520    1.478824
     18          6           0        0.701740    2.575884   -0.568447
     19          1           0        1.884116    2.512905    1.914111
     20          6           0        2.831073   -1.825521   -1.072569
     21          6           0        3.414274    0.705736    3.281935
     22          1           0        3.727306   -1.333482    1.482987
     23          6           0       -2.190803   -1.509921    0.697338
     24          8           0       -2.148820   -2.476370    1.399684
     25         17           0       -0.653956   -0.835560    0.073132
     26          1           0        3.620821    1.747397    3.544972
     27          1           0        4.337123    0.128468    3.391250
     28          1           0        2.690361    0.316598    4.007652
     29          6           0        4.338715   -1.864207   -1.377226
     30          6           0        2.063580   -1.738919   -2.394043
     31          6           0        2.430145   -3.119840   -0.346826
     32          6           0        1.580781    3.827717   -0.734188
     33          6           0       -0.482298    2.911954    0.353501
     34          6           0        0.166149    2.167380   -1.943151
     35          1           0       -0.146281    3.292208    1.324198
     36          1           0       -1.105460    2.028965    0.535451
     37          1           0       -1.109113    3.684615   -0.108287
     38          1           0        1.954155    4.189964    0.230080
     39          1           0        1.001974    4.636509   -1.196851
     40          1           0        2.444772    3.616679   -1.375334
     41          1           0        0.980007    1.970450   -2.648076
     42          1           0       -0.453238    2.977203   -2.347203
     43          1           0       -0.440731    1.257997   -1.885499
     44          1           0        2.992904   -3.257306    0.582823
     45          1           0        2.631948   -3.984888   -0.990066
     46          1           0        1.362611   -3.119764   -0.100009
     47          1           0        2.345958   -0.850276   -2.967458
     48          1           0        0.981947   -1.698279   -2.229188
     49          1           0        2.287086   -2.625387   -2.999589
     50          1           0        4.659435   -0.946649   -1.884563
     51          1           0        4.568916   -2.713815   -2.031550
     52          1           0        4.932652   -1.973011   -0.462815
 ---------------------------------------------------------------------
 Rotational constants (GHZ):      0.3068918      0.1380435      0.1200844
 Leave Link  202 at Tue May  8 03:07:16 2018, MaxMem=   536870912 cpu:         0.0
 (Enter /ihome/crc/build/g09/g09-D.01/TAR/g09/l301.exe)
 Standard basis: 6-31+G(d) (6D, 7F)
 Ernie: Thresh=  0.10000D-02 Tol=  0.10000D-05 Strict=F.
 There are   516 symmetry adapted cartesian basis functions of A   symmetry.
 There are   516 symmetry adapted basis functions of A   symmetry.
   516 basis functions,   904 primitive gaussians,   516 cartesian basis functions
    93 alpha electrons       93 beta electrons
       nuclear repulsion energy      2265.6594738267 Hartrees.
 IExCor= 4336 DFT=T Ex+Corr=M062X ExCW=0 ScaHFX=  0.540000
 ScaDFX=  1.000000  1.000000  1.000000  1.000000 ScalE2=  1.000000  1.000000
 IRadAn=      0 IRanWt=     -1 IRanGd=            0 ICorTp=0 IEmpDi=  4
 NAtoms=   52 NActive=   52 NUniq=   52 SFac= 1.00D+00 NAtFMM=   60 NAOKFM=F Big=F
 Integral buffers will be    131072 words long.
 Raffenetti 2 integral format.
 Two-electron integral symmetry is turned on.
 ------------------------------------------------------------------------------
 Polarizable Continuum Model (PCM)
 =================================
 Model                : PCM (using non-symmetric T matrix).
 Atomic radii         : SMD-Coulomb.
 Polarization charges : Total charges.
 Charge compensation  : None.
 Solution method      : On-the-fly selection.
 Cavity type          : VdW (van der Waals Surface) (Alpha=1.000).
 Cavity algorithm     : GePol (No added spheres)
                        Default sphere list used, NSphG=   52.
                        Lebedev-Laikov grids with approx.  5.0 points / Ang**2.
                        Smoothing algorithm: Karplus/York (Gamma=1.0000).
                        Polarization charges: spherical gaussians, with
                                              point-specific exponents (IZeta= 3).
                        Self-potential: point-specific (ISelfS= 7).
                        Self-field    : sphere-specific E.n sum rule (ISelfD= 2).
 1st derivatives      : Analytical E(r).r(x)/FMM algorithm (CHGder, D1EAlg=3).
                        Cavity 1st derivative terms included.
 Solvent              : Chloroform, Eps=   4.711300 Eps(inf)=   2.090627
 ------------------------------------------------------------------------------
 GePol: Number of generator spheres                  =      52
 GePol: Total number of spheres                      =      52
 GePol: Number of exposed spheres                    =      52 (100.00%)
 GePol: Number of points                             =    3605
 GePol: Average weight of points                     =       0.11
 GePol: Minimum weight of points                     =   0.26D-08
 GePol: Maximum weight of points                     =    0.18790
 GePol: Number of points with low weight             =     224
 GePol: Fraction of low-weight points (<1% of avg)   =       6.21%
 GePol: Cavity surface area                          =    405.679 Ang**2
 GePol: Cavity volume                                =    399.056 Ang**3
 ------------------------------------------------------------------------------
 Atomic radii for non-electrostatic terms: SMD-CDS.
 ------------------------------------------------------------------------------
 PCM non-electrostatic energy =        -0.0113705958 Hartrees.
 Nuclear repulsion after PCM non-electrostatic terms =     2265.6481032310 Hartrees.
 Leave Link  301 at Tue May  8 03:07:16 2018, MaxMem=   536870912 cpu:         0.4
 (Enter /ihome/crc/build/g09/g09-D.01/TAR/g09/l302.exe)
 NPDir=0 NMtPBC=     1 NCelOv=     1 NCel=       1 NClECP=     1 NCelD=      1
         NCelK=      1 NCelE2=     1 NClLst=     1 CellRange=     0.0.
 One-electron integrals computed using PRISM.
 NBasis=   516 RedAO= T EigKep=  1.12D-06  NBF=   516
 NBsUse=   516 1.00D-06 EigRej= -1.00D+00 NBFU=   516
 Precomputing XC quadrature grid using
 IXCGrd= 4 IRadAn=           0 IRanWt=          -1 IRanGd=           0 AccXCQ= 0.00D+00.
 Generated NRdTot=       0 NPtTot=           0 NUsed=           0 NTot=          32
 NSgBfM=   509   509   509   509   509 MxSgAt=    52 MxSgA2=    52.
 Leave Link  302 at Tue May  8 03:07:17 2018, MaxMem=   536870912 cpu:         4.6
 (Enter /ihome/crc/build/g09/g09-D.01/TAR/g09/l303.exe)
 DipDrv:  MaxL=1.
 Leave Link  303 at Tue May  8 03:07:17 2018, MaxMem=   536870912 cpu:         0.4
 (Enter /ihome/crc/build/g09/g09-D.01/TAR/g09/l401.exe)
 ExpMin= 4.38D-02 ExpMax= 2.52D+04 ExpMxC= 3.78D+03 IAcc=2 IRadAn=         4 AccDes= 0.00D+00
 Harris functional with IExCor= 1009 and IRadAn=       4 diagonalized for initial guess.
 HarFok:  IExCor= 1009 AccDes= 0.00D+00 IRadAn=         4 IDoV= 1 UseB2=F ITyADJ=14
 ICtDFT=  3500011 ScaDFX=  1.000000  1.000000  1.000000  1.000000
 FoFCou: FMM=F IPFlag=           0 FMFlag=      100000 FMFlg1=           0
         NFxFlg=           0 DoJE=T BraDBF=F KetDBF=T FulRan=T
         wScrn=  0.000000 ICntrl=     500 IOpCl=  0 I1Cent=   200000004 NGrid=           0
         NMat0=    1 NMatS0=      1 NMatT0=    0 NMatD0=    1 NMtDS0=    0 NMtDT0=    0
 Petite list used in FoFCou.
 Harris En= -1406.29915336686    
 JPrj=0 DoOrth=F DoCkMO=F.
 Leave Link  401 at Tue May  8 03:07:19 2018, MaxMem=   536870912 cpu:        19.1
 (Enter /ihome/crc/build/g09/g09-D.01/TAR/g09/l502.exe)
 Closed shell SCF:
 Using DIIS extrapolation, IDIIS=  1040.
 Integral symmetry usage will be decided dynamically.
 IVT=      825339 IEndB=      825339 NGot=   536870912 MDV=   536328986
 LenX=   536328986 LenY=   536062214
 Requested convergence on RMS density matrix=1.00D-08 within 128 cycles.
 Requested convergence on MAX density matrix=1.00D-06.
 Requested convergence on             energy=1.00D-06.
 No special actions if energy rises.
 Fock matrices will be formed incrementally for  20 cycles.

 Cycle   1  Pass 1  IDiag  1:
 FoFJK:  IHMeth= 1 ICntrl=       0 DoSepK=F KAlg= 0 I1Cent=   0 FoldK=F
 IRaf= 790000000 NMat=   1 IRICut=       1 DoRegI=T DoRafI=F ISym2E= 0.
 FoFCou: FMM=F IPFlag=           0 FMFlag=      100000 FMFlg1=           0
         NFxFlg=           0 DoJE=F BraDBF=F KetDBF=F FulRan=T
         wScrn=  0.000000 ICntrl=       0 IOpCl=  0 I1Cent=           0 NGrid=           0
         NMat0=    1 NMatS0=      1 NMatT0=    0 NMatD0=    1 NMtDS0=    0 NMtDT0=    0
 Symmetry not used in FoFCou.
 Inv3:  Mode=1 IEnd=    38988075.
 Iteration    1 A*A^-1 deviation from unit magnitude is 9.10D-15 for   3307.
 Iteration    1 A*A^-1 deviation from orthogonality  is 7.92D-15 for   3166   1923.
 Iteration    1 A^-1*A deviation from unit magnitude is 9.10D-15 for   1894.
 Iteration    1 A^-1*A deviation from orthogonality  is 1.41D-12 for   3211   3191.
 E= -1406.16579643060    
 DIIS: error= 3.27D-02 at cycle   1 NSaved=   1.
 NSaved= 1 IEnMin= 1 EnMin= -1406.16579643060     IErMin= 1 ErrMin= 3.27D-02
 ErrMax= 3.27D-02  0.00D+00 EMaxC= 1.00D-01 BMatC= 7.61D-01 BMatP= 7.61D-01
 IDIUse=3 WtCom= 6.73D-01 WtEn= 3.27D-01
 Coeff-Com:  0.100D+01
 Coeff-En:   0.100D+01
 Coeff:      0.100D+01
 Gap=     0.474 Goal=   None    Shift=    0.000
 GapD=    0.474 DampG=2.000 DampE=0.500 DampFc=1.0000 IDamp=-1.
 RMSDP=4.83D-02 MaxDP=7.18D+00              OVMax= 2.14D-01

 Cycle   2  Pass 1  IDiag  1:
 RMSU=  4.61D-02    CP:  1.21D+00
 E= -1406.31489576531     Delta-E=       -0.149099334711 Rises=F Damp=F
 DIIS: error= 2.42D-02 at cycle   2 NSaved=   2.
 NSaved= 2 IEnMin= 2 EnMin= -1406.31489576531     IErMin= 2 ErrMin= 2.42D-02
 ErrMax= 2.42D-02  0.00D+00 EMaxC= 1.00D-01 BMatC= 6.10D-01 BMatP= 7.61D-01
 IDIUse=3 WtCom= 7.58D-01 WtEn= 2.42D-01
 Coeff-Com:  0.470D+00 0.530D+00
 Coeff-En:   0.435D+00 0.565D+00
 Coeff:      0.461D+00 0.539D+00
 Gap=     0.246 Goal=   None    Shift=    0.000
 RMSDP=4.15D-02 MaxDP=7.02D+00 DE=-1.49D-01 OVMax= 1.86D-01

 Cycle   3  Pass 1  IDiag  1:
 RMSU=  8.71D-03    CP:  8.05D-01  3.57D-01
 E= -1406.85329479256     Delta-E=       -0.538399027250 Rises=F Damp=F
 DIIS: error= 7.41D-03 at cycle   3 NSaved=   3.
 NSaved= 3 IEnMin= 3 EnMin= -1406.85329479256     IErMin= 3 ErrMin= 7.41D-03
 ErrMax= 7.41D-03  0.00D+00 EMaxC= 1.00D-01 BMatC= 4.59D-02 BMatP= 6.10D-01
 IDIUse=3 WtCom= 9.26D-01 WtEn= 7.41D-02
 Coeff-Com:  0.165D+00 0.262D+00 0.574D+00
 Coeff-En:   0.000D+00 0.000D+00 0.100D+01
 Coeff:      0.152D+00 0.242D+00 0.605D+00
 Gap=     0.246 Goal=   None    Shift=    0.000
 RMSDP=5.39D-03 MaxDP=3.13D-01 DE=-5.38D-01 OVMax= 5.78D-02

 Cycle   4  Pass 1  IDiag  1:
 RMSU=  4.73D-03    CP:  8.31D-01  3.89D-01  8.66D-01
 E= -1406.88219468039     Delta-E=       -0.028899887824 Rises=F Damp=F
 DIIS: error= 2.62D-03 at cycle   4 NSaved=   4.
 NSaved= 4 IEnMin= 4 EnMin= -1406.88219468039     IErMin= 4 ErrMin= 2.62D-03
 ErrMax= 2.62D-03  0.00D+00 EMaxC= 1.00D-01 BMatC= 8.16D-03 BMatP= 4.59D-02
 IDIUse=3 WtCom= 9.74D-01 WtEn= 2.62D-02
 Coeff-Com:  0.181D-02 0.322D-01 0.322D+00 0.644D+00
 Coeff-En:   0.000D+00 0.000D+00 0.143D+00 0.857D+00
 Coeff:      0.176D-02 0.314D-01 0.317D+00 0.650D+00
 Gap=     0.246 Goal=   None    Shift=    0.000
 RMSDP=1.90D-03 MaxDP=1.30D-01 DE=-2.89D-02 OVMax= 1.88D-02

 Cycle   5  Pass 1  IDiag  1:
 RMSU=  1.45D-03    CP:  8.31D-01  3.95D-01  9.07D-01  7.59D-01
 E= -1406.88839527532     Delta-E=       -0.006200594935 Rises=F Damp=F
 DIIS: error= 2.93D-04 at cycle   5 NSaved=   5.
 NSaved= 5 IEnMin= 5 EnMin= -1406.88839527532     IErMin= 5 ErrMin= 2.93D-04
 ErrMax= 2.93D-04  0.00D+00 EMaxC= 1.00D-01 BMatC= 1.08D-04 BMatP= 8.16D-03
 IDIUse=3 WtCom= 9.97D-01 WtEn= 2.93D-03
 Coeff-Com: -0.354D-02 0.252D-02 0.873D-01 0.221D+00 0.693D+00
 Coeff-En:   0.000D+00 0.000D+00 0.000D+00 0.000D+00 0.100D+01
 Coeff:     -0.353D-02 0.252D-02 0.870D-01 0.220D+00 0.694D+00
 Gap=     0.245 Goal=   None    Shift=    0.000
 RMSDP=3.92D-04 MaxDP=2.61D-02 DE=-6.20D-03 OVMax= 2.31D-03

 Cycle   6  Pass 1  IDiag  1:
 RMSU=  3.45D-04    CP:  8.31D-01  3.96D-01  9.19D-01  7.72D-01  1.10D+00
 E= -1406.88850630321     Delta-E=       -0.000111027891 Rises=F Damp=F
 DIIS: error= 7.19D-05 at cycle   6 NSaved=   6.
 NSaved= 6 IEnMin= 6 EnMin= -1406.88850630321     IErMin= 6 ErrMin= 7.19D-05
 ErrMax= 7.19D-05  0.00D+00 EMaxC= 1.00D-01 BMatC= 1.05D-05 BMatP= 1.08D-04
 IDIUse=1 WtCom= 1.00D+00 WtEn= 0.00D+00
 Coeff-Com: -0.115D-02-0.259D-02-0.140D-02 0.828D-02 0.230D+00 0.767D+00
 Coeff:     -0.115D-02-0.259D-02-0.140D-02 0.828D-02 0.230D+00 0.767D+00
 Gap=     0.246 Goal=   None    Shift=    0.000
 RMSDP=1.74D-04 MaxDP=1.63D-02 DE=-1.11D-04 OVMax= 9.61D-04

 Cycle   7  Pass 1  IDiag  1:
 RMSU=  1.02D-04    CP:  8.30D-01  3.94D-01  9.18D-01  7.75D-01  1.16D+00
                    CP:  8.15D-01
 E= -1406.88851992532     Delta-E=       -0.000013622105 Rises=F Damp=F
 DIIS: error= 3.37D-05 at cycle   7 NSaved=   7.
 NSaved= 7 IEnMin= 7 EnMin= -1406.88851992532     IErMin= 7 ErrMin= 3.37D-05
 ErrMax= 3.37D-05  0.00D+00 EMaxC= 1.00D-01 BMatC= 1.01D-06 BMatP= 1.05D-05
 IDIUse=1 WtCom= 1.00D+00 WtEn= 0.00D+00
 Coeff-Com:  0.168D-04-0.111D-02-0.815D-02-0.207D-01-0.273D-02 0.198D+00
 Coeff-Com:  0.834D+00
 Coeff:      0.168D-04-0.111D-02-0.815D-02-0.207D-01-0.273D-02 0.198D+00
 Coeff:      0.834D+00
 Gap=     0.246 Goal=   None    Shift=    0.000
 RMSDP=5.11D-05 MaxDP=3.32D-03 DE=-1.36D-05 OVMax= 4.61D-04

 Cycle   8  Pass 1  IDiag  1:
 RMSU=  3.72D-05    CP:  8.30D-01  3.94D-01  9.18D-01  7.77D-01  1.18D+00
                    CP:  8.39D-01  1.06D+00
 E= -1406.88852150711     Delta-E=       -0.000001581795 Rises=F Damp=F
 DIIS: error= 1.72D-05 at cycle   8 NSaved=   8.
 NSaved= 8 IEnMin= 8 EnMin= -1406.88852150711     IErMin= 8 ErrMin= 1.72D-05
 ErrMax= 1.72D-05  0.00D+00 EMaxC= 1.00D-01 BMatC= 2.58D-07 BMatP= 1.01D-06
 IDIUse=1 WtCom= 1.00D+00 WtEn= 0.00D+00
 Coeff-Com:  0.127D-03-0.219D-03-0.314D-02-0.108D-01-0.291D-01-0.103D-01
 Coeff-Com:  0.364D+00 0.690D+00
 Coeff:      0.127D-03-0.219D-03-0.314D-02-0.108D-01-0.291D-01-0.103D-01
 Coeff:      0.364D+00 0.690D+00
 Gap=     0.246 Goal=   None    Shift=    0.000
 RMSDP=3.27D-05 MaxDP=2.32D-03 DE=-1.58D-06 OVMax= 1.87D-04

 Cycle   9  Pass 1  IDiag  1:
 RMSU=  1.92D-05    CP:  8.30D-01  3.94D-01  9.18D-01  7.74D-01  1.18D+00
                    CP:  8.55D-01  1.18D+00  1.03D+00
 E= -1406.88852186009     Delta-E=       -0.000000352981 Rises=F Damp=F
 DIIS: error= 6.03D-06 at cycle   9 NSaved=   9.
 NSaved= 9 IEnMin= 9 EnMin= -1406.88852186009     IErMin= 9 ErrMin= 6.03D-06
 ErrMax= 6.03D-06  0.00D+00 EMaxC= 1.00D-01 BMatC= 3.03D-08 BMatP= 2.58D-07
 IDIUse=1 WtCom= 1.00D+00 WtEn= 0.00D+00
 Coeff-Com:  0.412D-04 0.905D-04 0.186D-03-0.109D-02-0.105D-01-0.351D-01
 Coeff-Com: -0.216D-02 0.263D+00 0.786D+00
 Coeff:      0.412D-04 0.905D-04 0.186D-03-0.109D-02-0.105D-01-0.351D-01
 Coeff:     -0.216D-02 0.263D+00 0.786D+00
 Gap=     0.246 Goal=   None    Shift=    0.000
 RMSDP=8.58D-06 MaxDP=5.62D-04 DE=-3.53D-07 OVMax= 8.72D-05

 Cycle  10  Pass 1  IDiag  1:
 RMSU=  4.99D-06    CP:  8.30D-01  3.94D-01  9.17D-01  7.73D-01  1.18D+00
                    CP:  8.52D-01  1.19D+00  1.11D+00  9.54D-01
 E= -1406.88852190300     Delta-E=       -0.000000042903 Rises=F Damp=F
 DIIS: error= 1.92D-06 at cycle  10 NSaved=  10.
 NSaved=10 IEnMin=10 EnMin= -1406.88852190300     IErMin=10 ErrMin= 1.92D-06
 ErrMax= 1.92D-06  0.00D+00 EMaxC= 1.00D-01 BMatC= 4.21D-09 BMatP= 3.03D-08
 IDIUse=1 WtCom= 1.00D+00 WtEn= 0.00D+00
 Coeff-Com:  0.291D-05 0.667D-04 0.463D-03 0.746D-03-0.126D-02-0.137D-01
 Coeff-Com: -0.430D-01 0.382D-01 0.354D+00 0.665D+00
 Coeff:      0.291D-05 0.667D-04 0.463D-03 0.746D-03-0.126D-02-0.137D-01
 Coeff:     -0.430D-01 0.382D-01 0.354D+00 0.665D+00
 Gap=     0.246 Goal=   None    Shift=    0.000
 RMSDP=3.23D-06 MaxDP=1.96D-04 DE=-4.29D-08 OVMax= 1.91D-05

 Cycle  11  Pass 1  IDiag  1:
 RMSU=  1.38D-06    CP:  8.30D-01  3.94D-01  9.17D-01  7.73D-01  1.18D+00
                    CP:  8.51D-01  1.20D+00  1.14D+00  1.05D+00  9.73D-01
 E= -1406.88852190768     Delta-E=       -0.000000004682 Rises=F Damp=F
 DIIS: error= 6.54D-07 at cycle  11 NSaved=  11.
 NSaved=11 IEnMin=11 EnMin= -1406.88852190768     IErMin=11 ErrMin= 6.54D-07
 ErrMax= 6.54D-07  0.00D+00 EMaxC= 1.00D-01 BMatC= 3.50D-10 BMatP= 4.21D-09
 IDIUse=1 WtCom= 1.00D+00 WtEn= 0.00D+00
 Coeff-Com: -0.309D-05 0.169D-04 0.167D-03 0.404D-03 0.555D-03-0.166D-02
 Coeff-Com: -0.164D-01-0.113D-01 0.595D-01 0.262D+00 0.707D+00
 Coeff:     -0.309D-05 0.169D-04 0.167D-03 0.404D-03 0.555D-03-0.166D-02
 Coeff:     -0.164D-01-0.113D-01 0.595D-01 0.262D+00 0.707D+00
 Gap=     0.246 Goal=   None    Shift=    0.000
 RMSDP=7.30D-07 MaxDP=7.70D-05 DE=-4.68D-09 OVMax= 8.11D-06

 Cycle  12  Pass 1  IDiag  1:
 RMSU=  4.20D-07    CP:  8.30D-01  3.94D-01  9.17D-01  7.73D-01  1.18D+00
                    CP:  8.52D-01  1.20D+00  1.15D+00  1.06D+00  1.01D+00
                    CP:  1.11D+00
 E= -1406.88852190819     Delta-E=       -0.000000000508 Rises=F Damp=F
 DIIS: error= 1.88D-07 at cycle  12 NSaved=  12.
 NSaved=12 IEnMin=12 EnMin= -1406.88852190819     IErMin=12 ErrMin= 1.88D-07
 ErrMax= 1.88D-07  0.00D+00 EMaxC= 1.00D-01 BMatC= 5.79D-11 BMatP= 3.50D-10
 IDIUse=1 WtCom= 1.00D+00 WtEn= 0.00D+00
 Coeff-Com: -0.141D-05-0.138D-05 0.142D-04 0.740D-04 0.389D-03 0.109D-02
 Coeff-Com: -0.146D-02-0.962D-02-0.226D-01 0.243D-01 0.312D+00 0.696D+00
 Coeff:     -0.141D-05-0.138D-05 0.142D-04 0.740D-04 0.389D-03 0.109D-02
 Coeff:     -0.146D-02-0.962D-02-0.226D-01 0.243D-01 0.312D+00 0.696D+00
 Gap=     0.246 Goal=   None    Shift=    0.000
 RMSDP=2.84D-07 MaxDP=2.10D-05 DE=-5.08D-10 OVMax= 2.44D-06

 Cycle  13  Pass 1  IDiag  1:
 RMSU=  1.57D-07    CP:  8.30D-01  3.94D-01  9.17D-01  7.73D-01  1.18D+00
                    CP:  8.52D-01  1.20D+00  1.15D+00  1.06D+00  1.03D+00
                    CP:  1.19D+00  8.62D-01
 E= -1406.88852190823     Delta-E=       -0.000000000040 Rises=F Damp=F
 DIIS: error= 8.06D-08 at cycle  13 NSaved=  13.
 NSaved=13 IEnMin=13 EnMin= -1406.88852190823     IErMin=13 ErrMin= 8.06D-08
 ErrMax= 8.06D-08  0.00D+00 EMaxC= 1.00D-01 BMatC= 3.95D-12 BMatP= 5.79D-11
 IDIUse=1 WtCom= 1.00D+00 WtEn= 0.00D+00
 Coeff-Com: -0.798D-07-0.224D-05-0.113D-04-0.211D-04 0.651D-04 0.497D-03
 Coeff-Com:  0.116D-02-0.141D-02-0.137D-01-0.198D-01 0.208D-01 0.204D+00
 Coeff-Com:  0.808D+00
 Coeff:     -0.798D-07-0.224D-05-0.113D-04-0.211D-04 0.651D-04 0.497D-03
 Coeff:      0.116D-02-0.141D-02-0.137D-01-0.198D-01 0.208D-01 0.204D+00
 Coeff:      0.808D+00
 Gap=     0.246 Goal=   None    Shift=    0.000
 RMSDP=1.05D-07 MaxDP=7.17D-06 DE=-4.00D-11 OVMax= 1.46D-06

 Cycle  14  Pass 1  IDiag  1:
 RMSU=  5.33D-08    CP:  8.30D-01  3.94D-01  9.17D-01  7.73D-01  1.18D+00
                    CP:  8.51D-01  1.20D+00  1.15D+00  1.06D+00  1.03D+00
                    CP:  1.20D+00  9.19D-01  9.51D-01
 E= -1406.88852190828     Delta-E=       -0.000000000048 Rises=F Damp=F
 DIIS: error= 2.23D-08 at cycle  14 NSaved=  14.
 NSaved=14 IEnMin=14 EnMin= -1406.88852190828     IErMin=14 ErrMin= 2.23D-08
 ErrMax= 2.23D-08  0.00D+00 EMaxC= 1.00D-01 BMatC= 5.70D-13 BMatP= 3.95D-12
 IDIUse=1 WtCom= 1.00D+00 WtEn= 0.00D+00
 Coeff-Com:  0.863D-07-0.536D-06-0.396D-05-0.122D-04-0.938D-05 0.499D-04
 Coeff-Com:  0.432D-03 0.539D-03-0.257D-02-0.853D-02-0.233D-01-0.337D-02
 Coeff-Com:  0.289D+00 0.747D+00
 Coeff:      0.863D-07-0.536D-06-0.396D-05-0.122D-04-0.938D-05 0.499D-04
 Coeff:      0.432D-03 0.539D-03-0.257D-02-0.853D-02-0.233D-01-0.337D-02
 Coeff:      0.289D+00 0.747D+00
 Gap=     0.246 Goal=   None    Shift=    0.000
 RMSDP=3.14D-08 MaxDP=2.66D-06 DE=-4.82D-11 OVMax= 4.80D-07

 Cycle  15  Pass 1  IDiag  1:
 RMSU=  2.23D-08    CP:  8.30D-01  3.94D-01  9.17D-01  7.73D-01  1.18D+00
                    CP:  8.51D-01  1.20D+00  1.15D+00  1.06D+00  1.03D+00
                    CP:  1.21D+00  9.08D-01  9.93D-01  1.00D+00
 E= -1406.88852190829     Delta-E=       -0.000000000019 Rises=F Damp=F
 DIIS: error= 1.10D-08 at cycle  15 NSaved=  15.
 NSaved=15 IEnMin=15 EnMin= -1406.88852190829     IErMin=15 ErrMin= 1.10D-08
 ErrMax= 1.10D-08  0.00D+00 EMaxC= 1.00D-01 BMatC= 9.19D-14 BMatP= 5.70D-13
 IDIUse=1 WtCom= 1.00D+00 WtEn= 0.00D+00
 Coeff-Com:  0.443D-07 0.155D-06 0.162D-06-0.152D-05-0.134D-04-0.617D-04
 Coeff-Com: -0.228D-04 0.476D-03 0.116D-02 0.301D-04-0.125D-01-0.359D-01
 Coeff-Com: -0.131D-01 0.289D+00 0.771D+00
 Coeff:      0.443D-07 0.155D-06 0.162D-06-0.152D-05-0.134D-04-0.617D-04
 Coeff:     -0.228D-04 0.476D-03 0.116D-02 0.301D-04-0.125D-01-0.359D-01
 Coeff:     -0.131D-01 0.289D+00 0.771D+00
 Gap=     0.246 Goal=   None    Shift=    0.000
 RMSDP=1.45D-08 MaxDP=1.21D-06 DE=-1.86D-11 OVMax= 2.37D-07

 Cycle  16  Pass 1  IDiag  1:
 RMSU=  1.11D-08    CP:  8.30D-01  3.94D-01  9.17D-01  7.73D-01  1.18D+00
                    CP:  8.51D-01  1.20D+00  1.15D+00  1.06D+00  1.03D+00
                    CP:  1.20D+00  9.05D-01  1.00D+00  1.06D+00  9.25D-01
 E= -1406.88852190830     Delta-E=       -0.000000000007 Rises=F Damp=F
 DIIS: error= 4.34D-09 at cycle  16 NSaved=  16.
 NSaved=16 IEnMin=16 EnMin= -1406.88852190830     IErMin=16 ErrMin= 4.34D-09
 ErrMax= 4.34D-09  0.00D+00 EMaxC= 1.00D-01 BMatC= 1.36D-14 BMatP= 9.19D-14
 IDIUse=1 WtCom= 1.00D+00 WtEn= 0.00D+00
 Coeff-Com:  0.243D-08 0.117D-06 0.396D-06 0.869D-06-0.336D-05-0.265D-04
 Coeff-Com: -0.590D-04 0.908D-04 0.731D-03 0.128D-02-0.108D-02-0.124D-01
 Coeff-Com: -0.464D-01-0.414D-02 0.297D+00 0.765D+00
 Coeff:      0.243D-08 0.117D-06 0.396D-06 0.869D-06-0.336D-05-0.265D-04
 Coeff:     -0.590D-04 0.908D-04 0.731D-03 0.128D-02-0.108D-02-0.124D-01
 Coeff:     -0.464D-01-0.414D-02 0.297D+00 0.765D+00
 Gap=     0.246 Goal=   None    Shift=    0.000
 RMSDP=5.21D-09 MaxDP=3.73D-07 DE=-6.82D-12 OVMax= 9.85D-08

 Error on total polarization charges =  0.05849
 SCF Done:  E(RM062X) =  -1406.88852191     A.U. after   16 cycles
            NFock= 16  Conv=0.52D-08     -V/T= 2.0068
 KE= 1.397328700487D+03 PE=-7.819158904050D+03 EE= 2.749293578424D+03
 SMD-CDS (non-electrostatic) energy       (kcal/mol) =      -7.14
 (included in total energy above)
 Leave Link  502 at Tue May  8 03:12:13 2018, MaxMem=   536870912 cpu:      2344.1
 (Enter /ihome/crc/build/g09/g09-D.01/TAR/g09/l601.exe)
 Copying SCF densities to generalized density rwf, IOpCl= 0 IROHF=0.

 **********************************************************************

            Population analysis using the SCF density.

 **********************************************************************

 Orbital symmetries:
       Occupied  (A) (A) (A) (A) (A) (A) (A) (A) (A) (A) (A) (A)
                 (A) (A) (A) (A) (A) (A) (A) (A) (A) (A) (A) (A)
                 (A) (A) (A) (A) (A) (A) (A) (A) (A) (A) (A) (A)
                 (A) (A) (A) (A) (A) (A) (A) (A) (A) (A) (A) (A)
                 (A) (A) (A) (A) (A) (A) (A) (A) (A) (A) (A) (A)
                 (A) (A) (A) (A) (A) (A) (A) (A) (A) (A) (A) (A)
                 (A) (A) (A) (A) (A) (A) (A) (A) (A) (A) (A) (A)
                 (A) (A) (A) (A) (A) (A) (A) (A) (A)
       Virtual   (A) (A) (A) (A) (A) (A) (A) (A) (A) (A) (A) (A)
                 (A) (A) (A) (A) (A) (A) (A) (A) (A) (A) (A) (A)
                 (A) (A) (A) (A) (A) (A) (A) (A) (A) (A) (A) (A)
                 (A) (A) (A) (A) (A) (A) (A) (A) (A) (A) (A) (A)
                 (A) (A) (A) (A) (A) (A) (A) (A) (A) (A) (A) (A)
                 (A) (A) (A) (A) (A) (A) (A) (A) (A) (A) (A) (A)
                 (A) (A) (A) (A) (A) (A) (A) (A) (A) (A) (A) (A)
                 (A) (A) (A) (A) (A) (A) (A) (A) (A) (A) (A) (A)
                 (A) (A) (A) (A) (A) (A) (A) (A) (A) (A) (A) (A)
                 (A) (A) (A) (A) (A) (A) (A) (A) (A) (A) (A) (A)
                 (A) (A) (A) (A) (A) (A) (A) (A) (A) (A) (A) (A)
                 (A) (A) (A) (A) (A) (A) (A) (A) (A) (A) (A) (A)
                 (A) (A) (A) (A) (A) (A) (A) (A) (A) (A) (A) (A)
                 (A) (A) (A) (A) (A) (A) (A) (A) (A) (A) (A) (A)
                 (A) (A) (A) (A) (A) (A) (A) (A) (A) (A) (A) (A)
                 (A) (A) (A) (A) (A) (A) (A) (A) (A) (A) (A) (A)
                 (A) (A) (A) (A) (A) (A) (A) (A) (A) (A) (A) (A)
                 (A) (A) (A) (A) (A) (A) (A) (A) (A) (A) (A) (A)
                 (A) (A) (A) (A) (A) (A) (A) (A) (A) (A) (A) (A)
                 (A) (A) (A) (A) (A) (A) (A) (A) (A) (A) (A) (A)
                 (A) (A) (A) (A) (A) (A) (A) (A) (A) (A) (A) (A)
                 (A) (A) (A) (A) (A) (A) (A) (A) (A) (A) (A) (A)
                 (A) (A) (A) (A) (A) (A) (A) (A) (A) (A) (A) (A)
                 (A) (A) (A) (A) (A) (A) (A) (A) (A) (A) (A) (A)
                 (A) (A) (A) (A) (A) (A) (A) (A) (A) (A) (A) (A)
                 (A) (A) (A) (A) (A) (A) (A) (A) (A) (A) (A) (A)
                 (A) (A) (A) (A) (A) (A) (A) (A) (A) (A) (A) (A)
                 (A) (A) (A) (A) (A) (A) (A) (A) (A) (A) (A) (A)
                 (A) (A) (A) (A) (A) (A) (A) (A) (A) (A) (A) (A)
                 (A) (A) (A) (A) (A) (A) (A) (A) (A) (A) (A) (A)
                 (A) (A) (A) (A) (A) (A) (A) (A) (A) (A) (A) (A)
                 (A) (A) (A) (A) (A) (A) (A) (A) (A) (A) (A) (A)
                 (A) (A) (A) (A) (A) (A) (A) (A) (A) (A) (A) (A)
                 (A) (A) (A) (A) (A) (A) (A) (A) (A) (A) (A) (A)
                 (A) (A) (A) (A) (A) (A) (A) (A) (A) (A) (A) (A)
                 (A) (A) (A)
 The electronic state is 1-A.
 Alpha  occ. eigenvalues -- -102.67366 -19.67625 -14.74742 -10.70544 -10.58593
 Alpha  occ. eigenvalues --  -10.58210 -10.58170 -10.57424 -10.57304 -10.57117
 Alpha  occ. eigenvalues --  -10.56923 -10.56621 -10.56615 -10.55548 -10.55339
 Alpha  occ. eigenvalues --  -10.54399 -10.54370 -10.53931 -10.52927 -10.52890
 Alpha  occ. eigenvalues --  -10.52786 -10.52563 -10.52235 -10.51969  -9.81930
 Alpha  occ. eigenvalues --   -7.54273  -7.53700  -7.53625  -1.21575  -1.04965
 Alpha  occ. eigenvalues --   -0.98356  -0.94732  -0.93002  -0.91415  -0.90102
 Alpha  occ. eigenvalues --   -0.87176  -0.85904  -0.82702  -0.79742  -0.77086
 Alpha  occ. eigenvalues --   -0.76845  -0.76832  -0.76261  -0.73899  -0.71162
 Alpha  occ. eigenvalues --   -0.70351  -0.68921  -0.65047  -0.61852  -0.60825
 Alpha  occ. eigenvalues --   -0.60288  -0.56757  -0.56190  -0.55886  -0.55418
 Alpha  occ. eigenvalues --   -0.52650  -0.52542  -0.52156  -0.51908  -0.51876
 Alpha  occ. eigenvalues --   -0.50559  -0.50147  -0.49538  -0.49040  -0.48763
 Alpha  occ. eigenvalues --   -0.48606  -0.45940  -0.45748  -0.45634  -0.44942
 Alpha  occ. eigenvalues --   -0.44820  -0.43754  -0.43394  -0.43274  -0.42776
 Alpha  occ. eigenvalues --   -0.42719  -0.41963  -0.41649  -0.41544  -0.40161
 Alpha  occ. eigenvalues --   -0.39270  -0.38510  -0.38075  -0.38037  -0.37767
 Alpha  occ. eigenvalues --   -0.37699  -0.36266  -0.36048  -0.32571  -0.32199
 Alpha  occ. eigenvalues --   -0.31874  -0.30730  -0.28919
 Alpha virt. eigenvalues --   -0.04327   0.00856   0.01241   0.01620   0.01976
 Alpha virt. eigenvalues --    0.02312   0.02691   0.02815   0.03535   0.03721
 Alpha virt. eigenvalues --    0.04166   0.04307   0.04547   0.05141   0.05430
 Alpha virt. eigenvalues --    0.05592   0.05750   0.06238   0.06430   0.06572
 Alpha virt. eigenvalues --    0.06730   0.07207   0.07336   0.07747   0.08341
 Alpha virt. eigenvalues --    0.08587   0.08939   0.09023   0.09242   0.09663
 Alpha virt. eigenvalues --    0.10048   0.10240   0.10711   0.10813   0.10964
 Alpha virt. eigenvalues --    0.11686   0.12118   0.12376   0.12889   0.13008
 Alpha virt. eigenvalues --    0.13427   0.13843   0.14236   0.14439   0.14803
 Alpha virt. eigenvalues --    0.15293   0.15359   0.15619   0.15745   0.16205
 Alpha virt. eigenvalues --    0.16566   0.16781   0.16902   0.17670   0.18039
 Alpha virt. eigenvalues --    0.18336   0.18755   0.19084   0.19417   0.19542
 Alpha virt. eigenvalues --    0.19909   0.20109   0.20496   0.20537   0.20678
 Alpha virt. eigenvalues --    0.20856   0.21092   0.21456   0.21796   0.21943
 Alpha virt. eigenvalues --    0.22058   0.22257   0.22534   0.23183   0.23254
 Alpha virt. eigenvalues --    0.23649   0.23862   0.24100   0.24284   0.24689
 Alpha virt. eigenvalues --    0.24925   0.25345   0.25601   0.25756   0.25779
 Alpha virt. eigenvalues --    0.26238   0.26648   0.26991   0.27170   0.27463
 Alpha virt. eigenvalues --    0.27683   0.28283   0.28337   0.28573   0.28943
 Alpha virt. eigenvalues --    0.29120   0.29500   0.29758   0.30098   0.30583
 Alpha virt. eigenvalues --    0.30829   0.31032   0.31455   0.31987   0.32202
 Alpha virt. eigenvalues --    0.32371   0.32576   0.32900   0.33321   0.33387
 Alpha virt. eigenvalues --    0.33522   0.33762   0.34108   0.34717   0.34841
 Alpha virt. eigenvalues --    0.34962   0.35275   0.35649   0.35702   0.35804
 Alpha virt. eigenvalues --    0.36174   0.36582   0.37559   0.37899   0.38158
 Alpha virt. eigenvalues --    0.38549   0.38765   0.39284   0.40412   0.40526
 Alpha virt. eigenvalues --    0.41102   0.41828   0.42126   0.42594   0.42790
 Alpha virt. eigenvalues --    0.43340   0.43913   0.44623   0.44905   0.46017
 Alpha virt. eigenvalues --    0.47159   0.47694   0.47984   0.49217   0.49970
 Alpha virt. eigenvalues --    0.51108   0.51714   0.53583   0.55187   0.57059
 Alpha virt. eigenvalues --    0.57792   0.62242   0.65114   0.65392   0.66077
 Alpha virt. eigenvalues --    0.70165   0.70890   0.71751   0.72504   0.72825
 Alpha virt. eigenvalues --    0.73959   0.74431   0.75117   0.75736   0.76721
 Alpha virt. eigenvalues --    0.77157   0.77284   0.77666   0.77992   0.78246
 Alpha virt. eigenvalues --    0.78507   0.79285   0.79563   0.79727   0.80254
 Alpha virt. eigenvalues --    0.80651   0.80710   0.81200   0.81802   0.82183
 Alpha virt. eigenvalues --    0.82322   0.83132   0.84050   0.84693   0.84774
 Alpha virt. eigenvalues --    0.85670   0.86259   0.86541   0.87219   0.87933
 Alpha virt. eigenvalues --    0.88937   0.89106   0.89586   0.90129   0.90996
 Alpha virt. eigenvalues --    0.91108   0.91712   0.92932   0.93693   0.94892
 Alpha virt. eigenvalues --    0.95056   0.96159   0.96993   0.97610   0.98210
 Alpha virt. eigenvalues --    0.98429   0.98545   0.99655   1.00320   1.00649
 Alpha virt. eigenvalues --    1.01067   1.01240   1.02473   1.03251   1.03770
 Alpha virt. eigenvalues --    1.04423   1.04998   1.05860   1.06194   1.06243
 Alpha virt. eigenvalues --    1.07605   1.08086   1.08477   1.09007   1.09859
 Alpha virt. eigenvalues --    1.10146   1.11367   1.11927   1.12713   1.13016
 Alpha virt. eigenvalues --    1.14092   1.15314   1.15809   1.15984   1.16906
 Alpha virt. eigenvalues --    1.17569   1.18184   1.18495   1.19009   1.20659
 Alpha virt. eigenvalues --    1.21316   1.21523   1.21860   1.22443   1.23670
 Alpha virt. eigenvalues --    1.24027   1.24648   1.25447   1.26640   1.27542
 Alpha virt. eigenvalues --    1.28055   1.28549   1.28887   1.29435   1.30392
 Alpha virt. eigenvalues --    1.30547   1.30929   1.32201   1.33485   1.34256
 Alpha virt. eigenvalues --    1.35017   1.35759   1.36903   1.37919   1.38870
 Alpha virt. eigenvalues --    1.39910   1.40646   1.42411   1.43903   1.44466
 Alpha virt. eigenvalues --    1.45613   1.45817   1.46516   1.47626   1.49418
 Alpha virt. eigenvalues --    1.51021   1.51351   1.52205   1.52600   1.53446
 Alpha virt. eigenvalues --    1.53950   1.54890   1.55428   1.57529   1.58127
 Alpha virt. eigenvalues --    1.59109   1.60629   1.61900   1.63058   1.64050
 Alpha virt. eigenvalues --    1.68321   1.69567   1.72603   1.73835   1.75740
 Alpha virt. eigenvalues --    1.77727   1.78788   1.79304   1.79505   1.81788
 Alpha virt. eigenvalues --    1.82956   1.85431   1.87185   1.88046   1.91899
 Alpha virt. eigenvalues --    1.92151   1.92723   1.93654   1.94217   1.95089
 Alpha virt. eigenvalues --    1.95847   1.96401   1.96957   1.97411   1.98150
 Alpha virt. eigenvalues --    2.00742   2.01271   2.01347   2.01381   2.02542
 Alpha virt. eigenvalues --    2.02695   2.03096   2.06001   2.07201   2.10000
 Alpha virt. eigenvalues --    2.11162   2.12159   2.13444   2.15226   2.17104
 Alpha virt. eigenvalues --    2.18009   2.18245   2.20249   2.20687   2.21724
 Alpha virt. eigenvalues --    2.22047   2.22549   2.23789   2.23843   2.26552
 Alpha virt. eigenvalues --    2.28721   2.29226   2.29995   2.30957   2.31205
 Alpha virt. eigenvalues --    2.32580   2.32996   2.33851   2.35579   2.35716
 Alpha virt. eigenvalues --    2.36030   2.36720   2.36983   2.38808   2.38845
 Alpha virt. eigenvalues --    2.39288   2.39593   2.40805   2.41153   2.42065
 Alpha virt. eigenvalues --    2.43863   2.45292   2.46971   2.47223   2.48129
 Alpha virt. eigenvalues --    2.53963   2.56776   2.57733   2.60566   2.61303
 Alpha virt. eigenvalues --    2.62241   2.62268   2.63492   2.65387   2.65955
 Alpha virt. eigenvalues --    2.68086   2.68257   2.71216   2.75151   2.77194
 Alpha virt. eigenvalues --    2.77526   2.78347   2.80082   2.80366   2.81116
 Alpha virt. eigenvalues --    2.82747   2.86883   2.88581   2.90630   2.96664
 Alpha virt. eigenvalues --    2.97060   2.98877   2.99158   3.09068   3.10573
 Alpha virt. eigenvalues --    3.25035   3.25839   3.41789   3.47281   4.26034
 Alpha virt. eigenvalues --    4.27425   4.29460   4.31647   4.31870   4.33235
 Alpha virt. eigenvalues --    4.35755   4.40145   4.41508   4.42121   4.43025
 Alpha virt. eigenvalues --    4.44750   4.45257   4.47476   4.48339   4.50334
 Alpha virt. eigenvalues --    4.55459   4.59461   4.62010   4.64657   4.71959
 Alpha virt. eigenvalues --    4.74578   4.79890   4.87987
          Condensed to atoms (all electrons):
 Mulliken charges:
               1
     1  C   -0.384642
     2  C   -0.189860
     3  C   -0.304520
     4  C    0.854268
     5  C    0.209984
     6  C   -0.963834
     7  N   -0.235603
     8  C   -0.713099
     9  C   -0.178566
    10  C    0.318267
    11  C   -0.300649
    12  C   -0.832567
    13  H    0.246521
    14  H    0.245886
    15  H    0.256077
    16  H    0.247639
    17  H    0.267451
    18  C   -0.554843
    19  H    0.240659
    20  C   -0.399737
    21  C   -0.453297
    22  H    0.241868
    23  C   -0.294357
    24  O   -0.342581
    25  Cl   0.169625
    26  H    0.232929
    27  H    0.232056
    28  H    0.259555
    29  C   -0.343771
    30  C   -0.432182
    31  C   -0.336963
    32  C   -0.380553
    33  C   -0.286789
    34  C   -0.379475
    35  H    0.235052
    36  H    0.254747
    37  H    0.232538
    38  H    0.238246
    39  H    0.232010
    40  H    0.243506
    41  H    0.241071
    42  H    0.220674
    43  H    0.252678
    44  H    0.231896
    45  H    0.230019
    46  H    0.254312
    47  H    0.237227
    48  H    0.251739
    49  H    0.219744
    50  H    0.241434
    51  H    0.231449
    52  H    0.236760
 Sum of Mulliken charges =   0.00000
 Mulliken charges with hydrogens summed into heavy atoms:
               1
     1  C   -0.138121
     2  C    0.056027
     3  C   -0.037069
     4  C    0.854268
     5  C    0.466061
     6  C   -0.716195
     7  N   -0.235603
     8  C   -0.713099
     9  C    0.062093
    10  C    0.318267
    11  C   -0.058781
    12  C   -0.832567
    18  C   -0.554843
    20  C   -0.399737
    21  C    0.271243
    23  C   -0.294357
    24  O   -0.342581
    25  Cl   0.169625
    29  C    0.365871
    30  C    0.276528
    31  C    0.379264
    32  C    0.333210
    33  C    0.435548
    34  C    0.334947
 Electronic spatial extent (au):  <R**2>=           9863.0407
 Charge=              0.0000 electrons
 Dipole moment (field-independent basis, Debye):
    X=             -2.2458    Y=              2.8402    Z=              0.8760  Tot=              3.7253
 Quadrupole moment (field-independent basis, Debye-Ang):
   XX=           -123.2542   YY=           -154.6324   ZZ=           -153.3444
   XY=             -6.7372   XZ=              8.9593   YZ=              2.2754
 Traceless Quadrupole moment (field-independent basis, Debye-Ang):
   XX=             20.4895   YY=            -10.8888   ZZ=             -9.6007
   XY=             -6.7372   XZ=              8.9593   YZ=              2.2754
 Octapole moment (field-independent basis, Debye-Ang**2):
  XXX=           -183.5472  YYY=             17.2585  ZZZ=             25.6996  XYY=              8.8828
  XXY=             -8.6962  XXZ=             23.9437  XZZ=             20.9076  YZZ=              8.7345
  YYZ=             -9.7722  XYZ=             19.3640
 Hexadecapole moment (field-independent basis, Debye-Ang**3):
 XXXX=          -7416.8650 YYYY=          -3367.0798 ZZZZ=          -1777.6928 XXXY=            -49.3940
 XXXZ=             29.0385 YYYX=            -31.8114 YYYZ=             30.2201 ZZZX=             53.2525
 ZZZY=              6.2229 XXYY=          -1965.7150 XXZZ=          -1706.0395 YYZZ=           -843.8150
 XXYZ=           -103.9935 YYXZ=             31.3869 ZZXY=             -0.2155
 N-N= 2.265648103231D+03 E-N=-7.819158903616D+03  KE= 1.397328700487D+03
 No NMR shielding tensors so no spin-rotation constants.
 Leave Link  601 at Tue May  8 03:12:14 2018, MaxMem=   536870912 cpu:         1.7
 (Enter /ihome/crc/build/g09/g09-D.01/TAR/g09/l701.exe)
 Compute integral first derivatives.
 ... and contract with generalized density number  0.
 D1PCM: PCM CHGder 1st derivatives, ID1Alg=3 FixD1E=F DoIter=F DoCFld=F I1PDM=0.
 GePol: Maximum number of non-zero 1st derivatives   =     289
 Leave Link  701 at Tue May  8 03:12:18 2018, MaxMem=   536870912 cpu:        36.4
 (Enter /ihome/crc/build/g09/g09-D.01/TAR/g09/l702.exe)
 L702 exits ... SP integral derivatives will be done elsewhere.
 Leave Link  702 at Tue May  8 03:12:18 2018, MaxMem=   536870912 cpu:         0.1
 (Enter /ihome/crc/build/g09/g09-D.01/TAR/g09/l703.exe)
 Compute integral first derivatives, UseDBF=F ICtDFT=           0.
 Integral derivatives from FoFJK, PRISM(SPDF).
 Calling FoFJK, ICntrl=      2127 FMM=F ISym2X=0 I1Cent= 0 IOpClX= 0 NMat=1 NMatS=1 NMatT=0.
 FoFJK:  IHMeth= 1 ICntrl=    2127 DoSepK=F KAlg= 0 I1Cent=   0 FoldK=F
 IRaf=         0 NMat=   1 IRICut=       1 DoRegI=T DoRafI=F ISym2E= 0.
 FoFCou: FMM=F IPFlag=           0 FMFlag=      100000 FMFlg1=         800
         NFxFlg=           0 DoJE=F BraDBF=F KetDBF=F FulRan=T
         wScrn=  0.000000 ICntrl=    2127 IOpCl=  0 I1Cent=           0 NGrid=           0
         NMat0=    1 NMatS0=      1 NMatT0=    0 NMatD0=    1 NMtDS0=    0 NMtDT0=    0
 Symmetry not used in FoFCou.
 Leave Link  703 at Tue May  8 03:12:59 2018, MaxMem=   536870912 cpu:       324.6
 (Enter /ihome/crc/build/g09/g09-D.01/TAR/g09/l716.exe)
 Dipole        =-8.83561569D-01 1.11742867D+00 3.44660670D-01
 ***** Axes restored to original set *****
 -------------------------------------------------------------------
 Center     Atomic                   Forces (Hartrees/Bohr)
 Number     Number              X              Y              Z
 -------------------------------------------------------------------
      1        6          -0.000002912   -0.000005141   -0.000007893
      2        6           0.000000517   -0.000007324    0.000000356
      3        6          -0.000000843   -0.000002537   -0.000008488
      4        6          -0.000001877   -0.000001211   -0.000015576
      5        6          -0.000003042   -0.000010592    0.000005939
      6        6           0.000002192   -0.000005716    0.000003697
      7        7          -0.008238822    0.004051531    0.002541523
      8        6           0.000005246    0.000005629   -0.000004447
      9        6           0.000001931    0.000008461    0.000010808
     10        6          -0.000003092    0.000009535    0.000002760
     11        6          -0.000003719    0.000010489   -0.000003759
     12        6           0.000010444    0.000002025    0.000001316
     13        1          -0.000001409   -0.000003859   -0.000008304
     14        1           0.000001298   -0.000010209    0.000000502
     15        1           0.000000813   -0.000003335   -0.000001326
[...]
 088,0.00004411,-0.00030728,-0.00031346,-0.00042571,0.00103042,0.001863
 89,-0.00074775,-0.00358935,-0.00263490,-0.00427074,0.00000105,0.000001
 42,-0.00000046,0.00000030,0.00000122,-0.00000028,-0.00000313,0.0000029
 7,-0.00000575,-0.00000061,0.00000208,-0.00000041,-0.00000213,0.0000010
 6,-0.00000092,-0.00005631,0.00000919,-0.00005525,0.00002708,0.00002072
 ,-0.00000542,0.01069506,0.02249641,-0.01928754,0.00010315,0.00013051,-
 0.00004494,-0.00006748,-0.00007160,0.00004036,-0.00010561,0.00002884,0
 .00008041,0.00003294,-0.00003518,-0.00004602,0.00004492,-0.00000292,-0
 .00002838,-0.00001547,0.00001715,-0.00007584,-0.00001631,-0.00000641,-
 0.00000419,-0.00000404,0.00000419,-0.00004464,0.00158288,0.00041002,0.
 00069105,0.05302875,0.11352501,-0.13652763,0.00049370,0.00163768,0.000
 78552,0.00006336,0.00001017,0.00001574,0.00000737,0.00002506,0.0000456
 4,0.00003712,0.00004420,-0.00000043,-0.00000868,-0.00001055,0.00000339
 ,-0.00000776,-0.00000297,-0.00000354,0.00002387,0.00001448,-0.00000083
 ,-0.00000076,-0.00000901,0.00000539,-0.00000346,0.00003024,0.00001202,
 -0.00000848,-0.00000212,-0.00000199,0.00002577,0.00002194,-0.00000270,
 0.00001101,0.00001074,0.00001736,-0.00000243,0.00000494,-0.00000379,-0
 .00020497,-0.00010633,0.00040613,-0.00011576,-0.00086754,-0.00033715,0
 .00002875,-0.00009770,-0.00006403,-0.00583596,-0.00928891,0.00845593,0
 .00033359,-0.00055921,-0.00082683,-0.05649878,-0.12524218,0.15080891,-
 0.00000213,-0.00000387,-0.00000139,-0.00000242,-0.00000054,0.00000034,
 0.00000327,-0.00000269,-0.00000714,-0.00001814,-0.00000013,0.00000530,
 -0.00000358,-0.00000007,0.00000358,-0.00000073,-0.00000134,0.00000261,
 0.00014593,-0.00046510,-0.00027433,-0.00017139,-0.00004963,0.00004748,
 -0.00001403,0.00003938,-0.00003891,-0.00001922,0.00006870,0.00014330,0
 .00008914,-0.00026810,0.00001131,0.00130147,0.00207785,-0.00033874,-0.
 00000103,-0.00000016,-0.00000033,-0.00000084,0.00000014,-0.00000028,-0
 .00000127,0.00000477,0.00000209,-0.00000150,-0.00000009,-0.00000136,0.
 00000094,0.00000148,-0.00000089,-0.00000352,-0.00000727,0.00000662,0.0
 0001751,-0.00001054,-0.00000784,-0.00877851,0.02877099,0.01124091,-0.0
 0000483,-0.00002312,0.00000010,0.00002048,-0.00001232,-0.00004665,0.00
 006644,-0.00001570,-0.00003028,-0.00001636,-0.00000150,0.00000920,-0.0
 0002160,0.00002368,0.00002017,0.00000010,-0.00000159,0.00000406,-0.000
 00129,-0.00000043,-0.00000318,-0.00000108,0.00000133,-0.00000633,-0.06
 668239,0.06420571,0.02420748,0.00138757,0.00074406,0.00116895,-0.00694
 933,-0.00072293,0.00004726,-0.00001725,0.00000404,0.00001603,-0.000006
 26,-0.00000102,0.00000088,-0.00000975,0.00000311,0.00001458,0.00000012
 ,-0.00000064,-0.00000209,0.00000392,-0.00000095,-0.00000328,0.00000232
 ,0.00000129,0.00000049,0.00000158,-0.00000257,-0.00000277,0.00001052,0
 .00000288,-0.00000098,0.00001041,-0.00001259,-0.00001183,-0.00000354,-
 0.00000101,-0.00001524,0.00000704,0.00000328,-0.00000182,0.00000472,-0
 .00000185,-0.00000227,0.00010099,-0.00015723,0.00010135,0.00012600,-0.
 00008822,-0.00022919,-0.00060331,0.00202340,0.00075476,0.00000098,-0.0
 0047990,-0.00044803,0.00017651,-0.00030359,0.00010597,-0.00007608,-0.0
 0003391,-0.00011893,0.07361465,0.00000293,0.00000262,0.00000198,0.0000
 0118,0.00000124,-0.00000038,-0.00000394,0.00000458,0.00000664,0.000020
 60,0.00000128,-0.00000588,0.00000155,-0.00000119,-0.00000358,0.0000029
 4,0.00000002,-0.00000262,0.00044289,0.00054303,-0.00016346,0.00005968,
 -0.00006082,-0.00006320,0.00006218,0.00009232,0.00000582,0.00001649,-0
 .00017477,0.00001938,0.00011620,0.00021518,-0.00041601,-0.00056701,0.0
 0061146,0.00095409,0.00000118,0.00000025,0.00000004,0.00000108,0.00000
 021,0.00000016,-0.00000002,-0.00000361,-0.00000242,0.00000070,0.000000
 45,0.00000108,-0.00000133,-0.00000118,0.00000057,-0.00000975,0.0000005
 6,-0.00002272,-0.00001159,0.00001937,-0.00000502,-0.00056904,-0.001670
 59,-0.00043338,0.00000948,0.00001094,-0.00000018,0.00000879,0.00005456
 ,0.00006018,-0.00007766,0.00000906,0.00004079,0.00002257,-0.00000423,-
 0.00001671,0.00004008,-0.00000823,-0.00002639,-0.00000061,0.00000898,-
 0.00001162,-0.00000127,-0.00000790,-0.00000657,-0.00000600,-0.00000060
 ,-0.00000382,0.06558925,-0.26666578,-0.08286273,-0.00032650,0.00023885
 ,0.00013010,0.00106374,0.00120546,0.00014650,0.00002833,-0.00000043,-0
 .00000247,0.00000120,0.00000941,0.00001401,0.00001614,0.00000812,-0.00
 001011,-0.00000221,-0.00000322,0.00000032,-0.00000529,0.00000088,-0.00
 000060,0.00000821,0.00000456,-0.00000042,0.00000022,-0.00000011,0.0000
 0013,-0.00000465,0.00001080,0.00000463,-0.00000556,-0.00000045,0.00000
 637,0.00000353,-0.00000200,0.00000258,0.00000417,0.00000482,0.00000552
 ,-0.00000959,0.00000180,0.00000244,-0.00015137,-0.00000786,0.00000937,
 -0.00016815,0.00031981,-0.00000485,0.00017118,-0.00004962,-0.00024275,
 0.00005309,0.00016594,0.00027471,0.00003622,0.00020411,0.00013825,0.00
 008914,-0.00001349,-0.00005629,-0.07225043,0.28655310,0.00000038,0.000
 00144,-0.00000047,0.00000008,0.00000042,-0.00000009,-0.00000084,0.0000
 0068,0.00000122,0.00000457,0.00000019,0.00000035,-0.00000081,0.0000007
 6,-0.00000132,0.00000053,0.00000190,-0.00000095,0.00011662,0.00025102,
 0.00000309,0.00005837,-0.00003092,0.00006557,-0.00004081,0.00000874,-0
 .00008990,0.00006573,0.00019212,-0.00001527,-0.00033577,-0.00007843,-0
 .00014140,0.00009856,-0.00089003,0.00013620,0.00000051,-0.00000039,0.0
 0000020,0.00000049,-0.00000040,0.00000040,0.00000072,-0.00000244,0.000
 00139,0.00000033,-0.00000102,0.00000090,0.00000010,-0.00000110,0.00000
 052,0.00001525,0.00000026,0.00000783,0.00001460,0.00000264,-0.00000200
 ,0.00068965,-0.00168919,-0.00255642,-0.00000483,0.00000955,0.00000563,
 0.00012655,-0.00005533,0.00008512,-0.00001418,0.00000018,0.00000073,0.
 00000349,0.00000415,0.00000073,0.00000612,-0.00000407,-0.00000295,0.00
 000965,0.00000360,-0.00000367,0.00000714,-0.00001731,-0.00000378,-0.00
 000816,-0.00000332,0.00000649,0.02477617,-0.08263382,-0.08006326,-0.00
 040311,0.00076523,0.00025893,0.00081439,0.00040229,0.00042092,0.000000
 01,-0.00000675,-0.00001573,-0.00000292,0.00000052,-0.00000972,-0.00000
 567,-0.00000731,0.00000403,0.00000317,0.00000137,-0.00000232,-0.000001
 65,0.00000186,0.00000271,-0.00000457,-0.00000386,0.00000041,0.00000486
 ,0.00000743,-0.00000900,-0.00001146,-0.00000466,-0.00000007,0.00000084
 ,0.00000621,0.00001951,0.00000403,-0.00000468,0.00000172,-0.00000314,-
 0.00000063,-0.00000461,-0.00000607,0.00000305,0.00000140,-0.00004769,0
 .00030050,0.00022213,-0.00009568,-0.00029062,0.00004938,0.00012086,-0.
 00036634,0.00040673,-0.00036798,0.00000823,0.00005985,0.00012259,0.000
 06888,-0.00002980,0.00002080,0.00009991,-0.00001916,-0.02774298,0.0912
 9373,0.08184471,-0.00000327,-0.00000034,-0.00000102,-0.00000068,-0.000
 00004,-0.00000124,0.00000182,-0.00000467,-0.00000888,-0.00002218,-0.00
 000159,0.00001157,-0.00000115,0.00000604,0.00000048,-0.00000585,0.0000
 0196,0.00000128,-0.00100938,-0.00098603,0.00064827,0.00049240,-0.00055
 647,0.00032497,-0.00041336,-0.00043723,-0.00015374,0.00052248,0.000377
 24,-0.00026942,0.00002736,-0.00085019,0.00068454,-0.00524771,0.0029107
 5,-0.00195008,-0.00000118,-0.00000144,0.00000055,-0.00000049,-0.000001
 42,0.00000042,0.00000432,-0.00000396,0.00000729,0.00000107,-0.00000248
 ,0.00000076,0.00000240,-0.00000104,0.00000085,0.00007257,0.00000277,0.
 00010754,-0.00007668,0.00003533,0.00005465,-0.01340833,-0.02303340,0.0
 2087644,-0.00007110,-0.00000344,0.00001717,0.00002926,0.00016505,0.000
 08451,0.00011827,-0.00001878,-0.00008817,-0.00003810,0.00003479,0.0000
 5143,-0.00005473,-0.00001542,0.00003209,0.00000410,-0.00001409,0.00003
 356,0.00001628,0.00000889,0.00002440,0.00000592,-0.00001168,0.00003806
 ,-0.07668900,-0.06318547,0.05672240,0.00129705,-0.00048736,0.00136794,
 0.00142511,-0.00141070,-0.00005848,-0.00007463,-0.00001715,-0.00001572
 ,0.00000366,-0.00004089,-0.00004751,-0.00003255,-0.00004130,0.00000507
 ,0.00000969,0.00001567,-0.00000170,0.00000982,0.00000192,0.00000515,-0
 .00003051,-0.00001751,-0.00000199,-0.00000491,0.00001086,-0.00000573,0
 .00000582,-0.00003842,-0.00002355,0.00000959,0.00000335,-0.00000572,-0
 .00000369,0.00000466,0.00000525,-0.00002124,-0.00002107,-0.00001866,0.
 00001113,-0.00000181,0.00000080,-0.00004930,0.00015314,0.00001726,-0.0
 0000294,0.00080428,-0.00026004,0.00021964,0.00000867,-0.00036238,-0.00
 005385,-0.00003645,-0.00016518,0.00030796,0.00024652,0.00008190,-0.000
 19460,0.00041608,-0.00041591,0.00266231,0.00585985,-0.00678103,0.08565
 237,-0.00000225,-0.00000078,-0.00000131,-0.00000061,-0.00000031,-0.000
 00068,0.00000186,-0.00000331,-0.00000583,-0.00001712,-0.00000126,0.000
 00661,-0.00000075,0.00000387,0.00000115,-0.00000413,0.00000115,0.00000
 143,0.00006746,0.00034119,0.00003919,0.00006898,0.00002396,0.00006035,
 -0.00004658,-0.00002381,-0.00003069,0.00011501,0.00000256,-0.00005265,
 -0.00016998,0.00006361,-0.00014170,-0.00008498,0.00089105,-0.00017822,
 -0.00000088,-0.00000088,0.00000042,-0.00000048,-0.00000096,0.00000023,
 0.00000231,-0.00000104,0.00000389,0.00000061,-0.00000155,0.00000029,0.
 00000162,-0.00000019,0.00000032,0.00002206,0.00000260,0.00002244,-0.00
 001154,-0.00000363,0.00000800,0.00116355,0.00007491,-0.00140162,-0.000
 01225,-0.00001250,0.00000277,0.00000520,0.00002899,0.00003178,0.000074
 39,-0.00001346,-0.00004919,-0.00002295,0.00001539,0.00002447,-0.000042
 29,0.00000246,0.00002529,0.00000395,-0.00000655,0.00001237,0.00000622,
 -0.00000113,0.00000102,-0.00000065,0.00000039,0.00000998,-0.06408216,-
 0.17820521,0.11755797,0.00023346,0.00010695,-0.00013289,0.00055923,0.0
 0074236,-0.00049871,-0.00001560,-0.00000768,-0.00001753,-0.00000191,-0
 .00001066,-0.00001916,-0.00001007,-0.00001484,-0.00000008,0.00000416,0
 .00000517,-0.00000079,0.00000210,0.00000183,0.00000278,-0.00001285,-0.
 00000872,-0.00000038,0.00000234,0.00000670,-0.00000406,-0.00000885,-0.
 00001466,-0.00000362,0.00000047,0.00000910,0.00001317,0.00000294,-0.00
 000061,0.00000771,-0.00001109,-0.00000830,-0.00000590,0.00000129,0.000
 00215,0.00000105,-0.00011420,-0.00001422,-0.00008344,0.00037149,0.0000
 5290,0.00025163,-0.00014075,0.00016471,-0.00008132,-0.00008277,-0.0000
 9463,0.00006595,0.00002354,0.00009767,-0.00022520,-0.00012511,0.000181
 28,-0.00022930,-0.00997407,-0.01861307,0.01903742,0.06947072,0.1901840
 5,0.00000136,-0.00000044,-0.00000060,-0.00000062,-0.00000025,0.0000013
 8,0.00000036,0.00000204,0.00000454,0.00001043,0.00000016,-0.00000611,-
 0.00000121,-0.00000338,-0.00000040,0.00000418,-0.00000064,-0.00000043,
 0.00007754,-0.00027675,-0.00012232,0.00012093,0.00019517,-0.00033805,0
 .00017871,0.00018326,0.00029720,-0.00003321,-0.00048276,0.00017735,0.0
 0034733,0.00021285,-0.00026525,0.00060547,-0.00006795,0.00063421,0.000
 00075,0.00000086,-0.00000050,0.00000024,0.00000088,-0.00000013,-0.0000
 0248,0.00000208,-0.00000237,-0.00000129,0.00000087,-0.00000063,-0.0000
 0110,0.00000062,-0.00000064,-0.00007278,0.00002746,-0.00003722,-0.0000
 1572,0.00004458,0.00000858,-0.00058186,0.00161404,-0.00240365,0.000041
 13,-0.00001083,-0.00002291,-0.00007533,0.00025269,0.00019916,-0.000061
 67,0.00001986,0.00005020,0.00001893,-0.00002310,-0.00002971,0.00003606
 ,-0.00000086,-0.00001744,-0.00000805,0.00001267,-0.00002157,-0.0000072
 6,0.00000488,0.00000443,0.00000080,0.00000778,-0.00002946,0.05748100,0
 .11729182,-0.15371021,-0.00095497,-0.00040859,0.00035844,-0.00018073,0
 .00012654,-0.00009388,0.00006153,0.00001720,0.00002248,-0.00000207,0.0
 0001713,0.00003080,0.00001190,0.00002253,-0.00000952,-0.00000569,-0.00
 000541,-0.00000158,-0.00000463,-0.00000254,-0.00000151,0.00001722,0.00
 001086,-0.00000109,-0.00000027,-0.00000744,0.00000097,-0.00000524,0.00
 002801,0.00001175,-0.00000352,-0.00000374,-0.00000020,0.00000177,-0.00
 000469,-0.00000149,0.00001162,0.00000836,0.00001000,-0.00000506,-0.000
 00346,0.00000174,0.00005947,0.00002914,-0.00006741,0.00025295,-0.00022
 678,-0.00001997,-0.00008283,-0.00019045,0.00008149,0.00012256,-0.00013
 523,-0.00003986,0.00011832,-0.00021659,0.00009903,-0.00019214,0.000044
 93,0.00061002,-0.00499152,-0.00845122,0.00804689,-0.06264440,-0.130137
 54,0.16335378,-0.00000048,0.00000134,0.00000277,0.00000202,-0.00000090
 ,-0.00000193,-0.00000103,-0.00000319,-0.00000022,-0.00000853,0.0000010
 4,0.00000290,0.00000858,0.00000088,-0.00000085,-0.00000481,-0.00000358
 ,0.00000347,-0.00022044,-0.00083052,0.00011457,0.00009465,0.00035282,-
 0.00045414,0.00022236,0.00019962,0.00037626,-0.00002768,-0.00043180,0.
 00030223,-0.00037402,-0.00044828,-0.00018742,0.00102642,0.00123296,-0.
 00124147,-0.00000122,0.00000011,0.00000020,-0.00000085,0.,-0.00000042,
 0.00000150,0.00000460,-0.00000460,0.00000156,0.00000213,-0.00000060,-0
 .00000049,0.00000120,-0.00000015,-0.00005351,0.00001250,-0.00002078,0.
 00000522,0.00003611,0.00003150,-0.01301128,-0.00443699,-0.02902027,0.0
 0000366,-0.00001803,0.00000076,-0.00102167,-0.00010683,0.00150664,0.00
 005536,-0.00002246,-0.00004458,-0.00001624,0.00002275,0.00003724,-0.00
 003401,0.00000036,0.00000119,-0.00000387,0.00000881,-0.00000586,0.0000
 0306,-0.00000236,0.00000485,-0.00000040,0.00000496,-0.00000858,-0.0945
 9048,-0.01645683,-0.10008695,-0.00681930,0.00051086,0.00206138,0.00171
 154,-0.00128165,-0.00093677,0.00002990,0.00001545,0.00002544,0.0000054
 3,0.00000137,0.00001879,0.00000186,0.00002012,-0.00000299,-0.00000483,
 -0.00000516,0.00000595,-0.00000223,0.00000048,-0.00000178,0.00000479,0
 .00000571,-0.00000121,0.00000416,-0.00000969,0.00000562,-0.00000251,0.
 00001313,0.00000516,-0.00000313,-0.00000012,-0.00000234,-0.00000840,0.
 00001969,0.00000797,-0.00000056,-0.00001210,0.00000985,0.00002468,-0.0
 0000158,-0.00001333,0.00021006,0.00029940,0.00040739,-0.00004951,0.000
 14341,0.00005832,0.00018685,-0.00022100,0.00024378,0.00015618,-0.00013
 253,0.00014768,-0.00097472,-0.00014533,-0.00202608,0.00018235,0.000211
 57,0.00006304,0.00365645,0.00043716,0.00879217,0.00459899,0.00279194,0
 .01035308,0.10503857,0.00000008,-0.00000056,0.00000006,0.00000004,-0.0
 0000036,0.00000015,0.00000063,-0.00000075,0.00000054,-0.00000155,0.000
 00031,-0.00000195,0.00000076,-0.00000091,0.00000114,-0.00000029,-0.000
 00107,0.00000011,-0.00009626,-0.00008358,0.00009651,-0.00001743,0.0000
 9430,-0.00012300,0.00006302,0.00002678,0.00009571,-0.00005865,-0.00016
 505,0.00005606,-0.00024005,-0.00006850,0.00016096,-0.00004207,-0.00011
 996,-0.00081656,-0.00000023,0.00000039,-0.00000010,-0.00000023,0.00000
 026,-0.00000024,-0.00000033,0.00000094,-0.00000059,-0.00000013,0.00000
 059,-0.00000049,-0.00000025,0.00000087,-0.00000037,-0.00001484,-0.0000
 0429,-0.00001442,-0.00000208,0.00001287,0.00000472,0.00054544,-0.00179
 573,0.00176474,-0.00000028,-0.00000775,-0.00000846,-0.00053765,0.00008
 231,0.00058325,-0.00000061,0.00000506,0.00000744,0.00000011,-0.0000067
 3,-0.00000440,-0.00000032,0.00000080,-0.00000176,-0.00000466,0.0000026
 5,-0.00000564,-0.00000515,0.00001532,0.00002056,0.00001290,0.00000405,
 -0.00000930,-0.01642558,-0.05373773,-0.03533134,0.00053498,0.00023936,
 0.00022646,0.00039571,0.00035823,0.00082489,0.00002115,0.00000552,0.00
 000050,0.00000383,0.00000805,0.00001283,0.00001060,0.00000846,-0.00001
 025,-0.00000325,-0.00000275,0.00000233,-0.00000123,-0.00000070,-0.0000
 0003,0.00000628,0.00000395,-0.00000074,-0.00000484,-0.00000564,0.00000
 709,0.00000087,0.00000778,0.00000423,-0.00000475,0.00000157,-0.0000041
 1,0.00000084,0.00000003,0.00000441,0.00000165,0.00000109,0.00000596,-0
 .00000110,-0.00000219,0.00000140,0.00010840,0.00022804,-0.00002169,-0.
 00005736,-0.00004165,0.00009917,-0.00014175,-0.00002640,0.00004531,0.0
 0003681,0.00021420,0.00032219,0.00004438,0.00056929,0.00007294,0.00003
 365,0.00014641,-0.00038008,-0.01308100,-0.00301459,-0.02638166,0.01070
 329,0.00405698,0.02048136,0.01821849,0.05299043,0.00000010,0.00000066,
 0.00000273,0.00000142,-0.00000037,-0.00000137,-0.00000197,-0.00000121,
 -0.00000073,-0.00000332,0.00000093,0.00000377,0.00000448,0.00000128,-0
 .00000051,-0.00000242,-0.00000255,0.00000121,-0.00019840,-0.00019822,0
 .00009401,0.00009406,0.00002861,-0.00007133,-0.00007485,0.00004394,0.0
 0012966,0.00018905,-0.00012579,0.00013707,0.00107566,0.00006705,-0.000
 56644,0.00004408,0.00079365,-0.00003364,-0.00000086,0.00000009,-0.0000
 0003,-0.00000032,0.00000018,-0.00000042,0.00000016,0.00000167,-0.00000
 282,0.00000105,0.00000138,-0.00000007,-0.00000047,0.00000086,-0.000000
 16,-0.00001800,-0.00000422,-0.00000764,-0.00001025,0.00002669,0.000015
 43,0.00185051,0.00017270,0.00142606,0.00003192,-0.00004268,-0.00001029
 ,0.00141727,0.00060564,-0.00120288,0.00002876,-0.00001951,-0.00003404,
 -0.00000752,0.00001665,0.00002581,-0.00001793,0.00000099,0.00000859,-0
 .00000379,0.00000331,0.00000376,0.00000239,0.00000794,0.00000763,-0.00
 000287,-0.00000154,-0.00001383,-0.10218194,-0.03614235,-0.26438757,-0.
 00041167,0.00017287,0.00123489,0.00030568,0.00009774,0.00064037,0.0000
 2612,0.00000552,0.00000967,0.00000564,0.00000043,0.00001238,0.00000896
 ,0.00001091,-0.00000744,-0.00000177,-0.00000136,0.00000299,-0.00000221
 ,-0.00000046,-0.00000064,0.00000324,0.00000396,-0.00000247,-0.00000115
 ,-0.00000656,0.00000535,-0.00000217,0.00000760,0.00000133,-0.00000509,
 0.00000276,-0.00000314,-0.00000452,0.00000755,0.00000718,-0.00000202,-
 0.00000503,0.00000693,0.00000926,0.00000022,-0.00000509,-0.00022652,0.
 00051881,0.00017568,-0.00011889,-0.00005687,-0.00001902,-0.00001901,0.
 00011491,0.00016967,0.00017250,0.00003196,0.00002681,-0.00007407,-0.00
 005582,0.00003168,0.00016089,-0.00010717,0.00020843,-0.00358625,-0.000
 30400,-0.00868378,-0.00792604,-0.00388790,-0.01675834,0.10947311,0.038
 21418,0.28742461\\-0.00000200,-0.00000728,-0.00000507,0.00000200,-0.00
 000822,-0.00000383,-0.00000014,-0.00000363,-0.00000223,-0.00000227,-0.
 00000123,-0.00000167,0.00000058,-0.00000293,-0.00000812,0.00000194,-0.
 00000768,-0.00000202,0.00000390,-0.00000802,0.00000181,-0.00000053,0.0
 0000607,-0.00000458,0.00000256,0.00000444,0.00000492,-0.00000346,0.000
 00345,0.00000252,-0.00000290,0.00000516,-0.00000133,-0.00000369,0.0000
 0553,0.00000640,-0.00000134,-0.00000816,-0.00000472,0.00000200,-0.0000
 0958,-0.00000247,0.00000095,-0.00000017,-0.00000491,0.00000310,-0.0000
 0653,-0.00000232,-0.00000385,-0.00000531,-0.00000462,0.00000355,-0.000
 00197,0.00000355,0.00000131,0.00000328,0.00000208,-0.00000111,0.000003
 74,-0.00000234,-0.00000082,0.00000354,0.00000167,-0.00000126,0.0000044
 0,-0.00000004,-0.00001090,-0.00000118,0.00000874,-0.00000123,-0.000004
 61,-0.00001142,0.00000141,-0.00000049,-0.00000228,-0.00000029,0.000007
 75,0.00000286,-0.00000240,0.00000755,0.00000293,-0.00000438,0.00000600
 ,0.00000077,-0.00000341,0.00000047,0.00000154,0.00000019,0.00000398,-0
 .00000031,-0.00000070,0.00000175,-0.00000141,0.00000540,0.00000190,0.0
 0000368,0.00000973,-0.00000151,0.00000964,0.00001999,0.00000012,-0.000
 00751,0.00000185,0.00000002,0.00000127,0.00000252,-0.00000283,-0.00001
 593,0.00000296,-0.00000168,0.00000117,0.00000529,0.00000205,0.00000394
 ,0.00000573,0.00000039,0.00000339,0.00000519,0.00000006,0.00000390,0.0
 0000208,0.,0.00000310,0.00000214,-0.00000127,0.00000120,-0.00001977,-0
 .00001588,0.00001593,-0.00000598,0.00000504,-0.00000203,-0.00000460,0.
 00000309,-0.00000098,-0.00000342,0.00000201,-0.00000311,0.00000064,0.0
 0000153,0.00000031,-0.00000085,-0.00000278,0.00000052,-0.00000206,0.00
 000055,0.00000044,0.00000083,0.00000604,0.00000216,-0.00000112,0.00000
 577,0.00000113,-0.00000335,0.00000725,0.00000365\\\@


 I KNOW YOU BELIEVE YOU UNDERSTAND WHAT YOU THINK I SAID,
 BUT I AM NOT SURE YOU REALIZE THAT WHAT YOU HEARD IS NOT WHAT I MEANT.
 Job cpu time:       0 days 14 hours 53 minutes 26.6 seconds.
 File lengths (MBytes):  RWF=   3988 Int=      0 D2E=      0 Chk=     33 Scr=      1
 Normal termination of Gaussian 09 at Tue May  8 08:19:51 2018.
 Read checkpoint file 3.chk
 Write formatted file 3.fchk
 FChkPn:  Coordinates translated and rotated.
 FChkPn:  Coordinates match /B/ after translation and rotation.
